LAMMPS (4 Feb 2020)
OMP_NUM_THREADS environment is not set. Defaulting to 1 thread. (../comm.cpp:94)
  using 1 OpenMP thread(s) per MPI task
variable Nrun   equal 5  #
variable Nevery equal 1
variable T_ext  equal 400.0
variable seed   equal 123456

#-----------------------------------------------------------------------

clear
OMP_NUM_THREADS environment is not set. Defaulting to 1 thread. (../comm.cpp:94)
  using 1 OpenMP thread(s) per MPI task
units metal    # eV, Angstrom, g/mol, ps, K, bar
dimension 3
boundary p p p
atom_style atomic

# read initial structure from data file
read_data POSCAR-17x17x17-943296.data
  orthogonal box = (0 0 0) to (211.14 211.14 211.14)
  2 by 3 by 2 MPI processor grid
  reading atoms ...
  943296 atoms
  read_data CPU = 1.05133 secs

# potential
pair_style aenet H.ann O.ann
pair_coeff * *

#set carrier species
#group O type 1

# Configure output of thermodynamic quantities
#thermo 1
#thermo_style custom step time temp etotal pe ke
# thermo_modify norm yes  # normalize extensive quantitites by number of atoms

# EoM integration
# run_style  verlet
timestep   0.001  # 1fs, 0.001ps

# Neighbor list
neighbor 1.0 bin
neigh_modify once no every 1 delay 0 check yes

# compute msd and diffusivity,no time averaging is done.
# compute msd O msd
# variable twopoint equal c_msd[4]/6/(step*dt+1.0e-6)
# fix msd Li ave/time 1 1 10 c_msd[*] file msd_400K.data
# fix 9 Li vector 10 c_msd[4]
# variable fitslope equal slope(f_9)/6/(10*dt)

# Configure output of thermodynamic quantities
thermo 1
thermo_style custom step time temp etotal pe ke # c_msd[4]  v_fitslope
# thermo_modify norm yes  # normalize extensive quantitites by number of atoms

# save the trajectory in XYZ format
# dump q1 all xyz 10 dump.xyz       #0.02ps output one structure
# dump_modify q1 element H O

# NVT simulation with Bussi thermostat
velocity all create ${T_ext} ${seed} rot yes mom yes dist gaussian
velocity all create 400 ${seed} rot yes mom yes dist gaussian
velocity all create 400 123456 rot yes mom yes dist gaussian
fix 1 all nve
fix 2 all temp/csvr ${T_ext} ${T_ext} 1.0 ${seed}
fix 2 all temp/csvr 400 ${T_ext} 1.0 ${seed}
fix 2 all temp/csvr 400 400 1.0 ${seed}
fix 2 all temp/csvr 400 400 1.0 123456
fix 3 all momentum 100 linear 1 1 1
run ${Nrun}
run 5
Neighbor list info ...
  update every 1 steps, delay 0 steps, check yes
  max neighbors/atom: 2000, page size: 100000
  master list distance cutoff = 7.35
  ghost atom cutoff = 7.35
  binsize = 3.675, bins = 58 58 58
  1 neighbor lists, perpetual/occasional/extra = 1 0 0
  (1) pair aenet, perpetual
      attributes: full, newton on
      pair build: full/bin/atomonly
      stencil: full/bin/3d
      bin: standard
Per MPI rank memory allocation (min/avg/max) = 73.17 | 73.63 | 73.94 Mbytes
Step Time Temp TotEng PotEng KinEng 
       0            0          400 -1.4760889e+08 -1.4765766e+08    48772.179 
       1        0.001    398.27736 -1.4760886e+08 -1.4765742e+08    48562.137 
       2        0.002    397.43009 -1.4760882e+08 -1.4765728e+08    48458.829 
       3        0.003    403.11161 -1.4760885e+08 -1.47658e+08     49151.58 
       4        0.004    413.32067 -1.4760896e+08 -1.4765936e+08    50396.374 
       5        0.005    417.02042 -1.4760903e+08 -1.4765988e+08    50847.486 
Loop time of 75.2982 on 12 procs for 5 steps with 943296 atoms

Performance: 0.006 ns/day, 4183.231 hours/ns, 0.066 timesteps/s
99.6% CPU use with 12 MPI tasks x 1 OpenMP threads

MPI task timing breakdown:
Section |  min time  |  avg time  |  max time  |%varavg| %total
---------------------------------------------------------------
Pair    | 74.213     | 74.686     | 75.195     |   3.6 | 99.19
Neigh   | 0          | 0          | 0          |   0.0 |  0.00
Comm    | 0.076469   | 0.58538    | 1.0591     |  40.8 |  0.78
Output  | 0.0018942  | 0.0019264  | 0.001991   |   0.1 |  0.00
Modify  | 0.016829   | 0.017006   | 0.017169   |   0.1 |  0.02
Other   |            | 0.007392   |            |       |  0.01

Nlocal:    78608 ave 79196 max 78221 min
Histogram: 3 2 2 1 0 0 0 2 1 1
Nghost:    44737.3 ave 45340 max 44099 min
Histogram: 1 0 2 1 2 2 1 1 1 1
Neighs:    0 ave 0 max 0 min
Histogram: 12 0 0 0 0 0 0 0 0 0
FullNghs:  1.30014e+07 ave 1.30934e+07 max 1.29371e+07 min
Histogram: 3 1 2 2 0 0 1 1 1 1

Total # of neighbors = 156017228
Ave neighs/atom = 165.396
Neighbor list builds = 0
Dangerous builds = 0
Total wall time: 0:01:31
