LAMMPS (4 Feb 2020)
OMP_NUM_THREADS environment is not set. Defaulting to 1 thread. (../comm.cpp:94)
  using 1 OpenMP thread(s) per MPI task
variable Nrun   equal 5  #
variable Nevery equal 1
variable T_ext  equal 400.0
variable seed   equal 123456

#-----------------------------------------------------------------------

clear
OMP_NUM_THREADS environment is not set. Defaulting to 1 thread. (../comm.cpp:94)
  using 1 OpenMP thread(s) per MPI task
units metal    # eV, Angstrom, g/mol, ps, K, bar
dimension 3
boundary p p p
atom_style atomic

# read initial structure from data file
read_data POSCAR-18x18x18-1119744.data
  orthogonal box = (0 0 0) to (223.56 223.56 223.56)
  2 by 2 by 3 MPI processor grid
  reading atoms ...
  1119744 atoms
  read_data CPU = 1.77502 secs

# potential
pair_style aenet H.ann O.ann
pair_coeff * *

#set carrier species
#group O type 1

# Configure output of thermodynamic quantities
#thermo 1
#thermo_style custom step time temp etotal pe ke
# thermo_modify norm yes  # normalize extensive quantitites by number of atoms

# EoM integration
# run_style  verlet
timestep   0.001  # 1fs, 0.001ps

# Neighbor list
neighbor 1.0 bin
neigh_modify once no every 1 delay 0 check yes

# compute msd and diffusivity,no time averaging is done.
# compute msd O msd
# variable twopoint equal c_msd[4]/6/(step*dt+1.0e-6)
# fix msd Li ave/time 1 1 10 c_msd[*] file msd_400K.data
# fix 9 Li vector 10 c_msd[4]
# variable fitslope equal slope(f_9)/6/(10*dt)

# Configure output of thermodynamic quantities
thermo 1
thermo_style custom step time temp etotal pe ke # c_msd[4]  v_fitslope
# thermo_modify norm yes  # normalize extensive quantitites by number of atoms

# save the trajectory in XYZ format
# dump q1 all xyz 10 dump.xyz       #0.02ps output one structure
# dump_modify q1 element H O

# NVT simulation with Bussi thermostat
velocity all create ${T_ext} ${seed} rot yes mom yes dist gaussian
velocity all create 400 ${seed} rot yes mom yes dist gaussian
velocity all create 400 123456 rot yes mom yes dist gaussian
fix 1 all nve
fix 2 all temp/csvr ${T_ext} ${T_ext} 1.0 ${seed}
fix 2 all temp/csvr 400 ${T_ext} 1.0 ${seed}
fix 2 all temp/csvr 400 400 1.0 ${seed}
fix 2 all temp/csvr 400 400 1.0 123456
fix 3 all momentum 100 linear 1 1 1
run ${Nrun}
run 5
Neighbor list info ...
  update every 1 steps, delay 0 steps, check yes
  max neighbors/atom: 2000, page size: 100000
  master list distance cutoff = 7.35
  ghost atom cutoff = 7.35
  binsize = 3.675, bins = 61 61 61
  1 neighbor lists, perpetual/occasional/extra = 1 0 0
  (1) pair aenet, perpetual
      attributes: full, newton on
      pair build: full/bin/atomonly
      stencil: full/bin/3d
      bin: standard
Per MPI rank memory allocation (min/avg/max) = 86.25 | 86.25 | 86.25 Mbytes
Step Time Temp TotEng PotEng KinEng 
       0            0          400 -1.7521983e+08 -1.7527773e+08    57895.257 
       1        0.001    398.56545 -1.752198e+08 -1.7527748e+08    57687.622 
       2        0.002    397.65323 -1.7521975e+08 -1.7527731e+08     57555.59 
       3        0.003    403.06036 -1.7521978e+08 -1.7527812e+08    58338.208 
       4        0.004       413.24 -1.7521992e+08 -1.7527973e+08     59811.59 
       5        0.005    417.20134  -1.7522e+08 -1.7528039e+08    60384.946 
Loop time of 88.9906 on 12 procs for 5 steps with 1119744 atoms

Performance: 0.005 ns/day, 4943.924 hours/ns, 0.056 timesteps/s
99.7% CPU use with 12 MPI tasks x 1 OpenMP threads

MPI task timing breakdown:
Section |  min time  |  avg time  |  max time  |%varavg| %total
---------------------------------------------------------------
Pair    | 88.603     | 88.807     | 88.887     |   0.8 | 99.79
Neigh   | 0          | 0          | 0          |   0.0 |  0.00
Comm    | 0.072029   | 0.15284    | 0.35692    |  18.5 |  0.17
Output  | 0.002368   | 0.0024178  | 0.0024638  |   0.1 |  0.00
Modify  | 0.019792   | 0.01989    | 0.019969   |   0.0 |  0.02
Other   |            | 0.008831   |            |       |  0.01

Nlocal:    93312 ave 93312 max 93312 min
Histogram: 12 0 0 0 0 0 0 0 0 0
Nghost:    50527 ave 50527 max 50527 min
Histogram: 12 0 0 0 0 0 0 0 0 0
Neighs:    0 ave 0 max 0 min
Histogram: 12 0 0 0 0 0 0 0 0 0
FullNghs:  1.54334e+07 ave 1.54334e+07 max 1.54334e+07 min
Histogram: 12 0 0 0 0 0 0 0 0 0

Total # of neighbors = 185200992
Ave neighs/atom = 165.396
Neighbor list builds = 0
Dangerous builds = 0
Total wall time: 0:01:49
