LAMMPS (4 Feb 2020)
OMP_NUM_THREADS environment is not set. Defaulting to 1 thread. (../comm.cpp:94)
  using 1 OpenMP thread(s) per MPI task
variable Nrun   equal 5  #
variable Nevery equal 1
variable T_ext  equal 500.0
variable seed   equal 123456

#-----------------------------------------------------------------------

clear
OMP_NUM_THREADS environment is not set. Defaulting to 1 thread. (../comm.cpp:94)
  using 1 OpenMP thread(s) per MPI task
units metal    # eV, Angstrom, g/mol, ps, K, bar
dimension 3
boundary p p p
atom_style atomic

# read initial structure from data file
read_data aLiSi.data
  orthogonal box = (0 0 0) to (66.311 78.9799 75.0577)
  1 by 1 by 1 MPI processor grid
  reading atoms ...
  25500 atoms
  read_data CPU = 0.0753579 secs

# potential
pair_style aenet Li.ann Si.ann
pair_coeff * *

#set carrier species
#group Li type 1

# Configure output of thermodynamic quantities
#thermo 1
#thermo_style custom step time temp etotal pe ke
# thermo_modify norm yes  # normalize extensive quantitites by number of atoms

# EoM integration
# run_style  verlet
timestep   0.001  # 1fs, 0.001ps

# Neighbor list
neighbor 1.0 bin
neigh_modify once no every 1 delay 0 check yes

# Configure output of thermodynamic quantities
thermo 1
thermo_style custom step time temp etotal pe ke # c_msd[4]  v_fitslope
# thermo_modify norm yes  # normalize extensive quantitites by number of atoms


# NVT simulation with Bussi thermostat
velocity all create ${T_ext} ${seed} rot yes mom yes dist gaussian
velocity all create 500 ${seed} rot yes mom yes dist gaussian
velocity all create 500 123456 rot yes mom yes dist gaussian
fix 1 all nve
fix 2 all temp/csvr ${T_ext} ${T_ext} 1.0 ${seed}
fix 2 all temp/csvr 500 ${T_ext} 1.0 ${seed}
fix 2 all temp/csvr 500 500 1.0 ${seed}
fix 2 all temp/csvr 500 500 1.0 123456
fix 3 all momentum 100 linear 1 1 1
run ${Nrun}
run 5
Neighbor list info ...
  update every 1 steps, delay 0 steps, check yes
  max neighbors/atom: 2000, page size: 100000
  master list distance cutoff = 9
  ghost atom cutoff = 9
  binsize = 4.5, bins = 15 18 17
  1 neighbor lists, perpetual/occasional/extra = 1 0 0
  (1) pair aenet, perpetual
      attributes: full, newton on
      pair build: full/bin/atomonly
      stencil: full/bin/3d
      bin: standard
Per MPI rank memory allocation (min/avg/max) = 29.25 | 29.25 | 29.25 Mbytes
Step Time Temp TotEng PotEng KinEng 
       0            0          500   -74387.336   -76035.339    1648.0022 
       1        0.001    500.60231   -74386.565   -76036.552    1649.9874 
       2        0.002    501.72864   -74386.342   -76040.042    1653.6998 
       3        0.003    503.31813   -74386.717   -76045.656    1658.9388 
       4        0.004    505.56728   -74386.765   -76053.117     1666.352 
       5        0.005    508.11521   -74386.807   -76061.557      1674.75 
Loop time of 21.4314 on 1 procs for 5 steps with 25500 atoms

Performance: 0.020 ns/day, 1190.634 hours/ns, 0.233 timesteps/s
99.3% CPU use with 1 MPI tasks x 1 OpenMP threads

MPI task timing breakdown:
Section |  min time  |  avg time  |  max time  |%varavg| %total
---------------------------------------------------------------
Pair    | 21.424     | 21.424     | 21.424     |   0.0 | 99.97
Neigh   | 0          | 0          | 0          |   0.0 |  0.00
Comm    | 0.0022125  | 0.0022125  | 0.0022125  |   0.0 |  0.01
Output  | 0.00051451 | 0.00051451 | 0.00051451 |   0.0 |  0.00
Modify  | 0.0030599  | 0.0030599  | 0.0030599  |   0.0 |  0.01
Other   |            | 0.001224   |            |       |  0.01

Nlocal:    25500 ave 25500 max 25500 min
Histogram: 1 0 0 0 0 0 0 0 0 0
Nghost:    25244 ave 25244 max 25244 min
Histogram: 1 0 0 0 0 0 0 0 0 0
Neighs:    0 ave 0 max 0 min
Histogram: 1 0 0 0 0 0 0 0 0 0
FullNghs:  4.665e+06 ave 4.665e+06 max 4.665e+06 min
Histogram: 1 0 0 0 0 0 0 0 0 0

Total # of neighbors = 4665000
Ave neighs/atom = 182.941
Neighbor list builds = 0
Dangerous builds = 0
Total wall time: 0:00:26
