LAMMPS (4 Feb 2020)
OMP_NUM_THREADS environment is not set. Defaulting to 1 thread. (../comm.cpp:94)
  using 1 OpenMP thread(s) per MPI task
variable Nrun   equal 5  #
variable Nevery equal 1
variable T_ext  equal 500.0
variable seed   equal 123456

#-----------------------------------------------------------------------

clear
OMP_NUM_THREADS environment is not set. Defaulting to 1 thread. (../comm.cpp:94)
  using 1 OpenMP thread(s) per MPI task
units metal    # eV, Angstrom, g/mol, ps, K, bar
dimension 3
boundary p p p
atom_style atomic

# read initial structure from data file
read_data aLiSi.data
  orthogonal box = (0 0 0) to (92.8354 110.572 105.081)
  1 by 1 by 1 MPI processor grid
  reading atoms ...
  69972 atoms
  read_data CPU = 0.104126 secs

# potential
pair_style aenet Li.ann Si.ann
pair_coeff * *

#set carrier species
#group Li type 1

# Configure output of thermodynamic quantities
#thermo 1
#thermo_style custom step time temp etotal pe ke
# thermo_modify norm yes  # normalize extensive quantitites by number of atoms

# EoM integration
# run_style  verlet
timestep   0.001  # 1fs, 0.001ps

# Neighbor list
neighbor 1.0 bin
neigh_modify once no every 1 delay 0 check yes

# Configure output of thermodynamic quantities
thermo 1
thermo_style custom step time temp etotal pe ke # c_msd[4]  v_fitslope
# thermo_modify norm yes  # normalize extensive quantitites by number of atoms


# NVT simulation with Bussi thermostat
velocity all create ${T_ext} ${seed} rot yes mom yes dist gaussian
velocity all create 500 ${seed} rot yes mom yes dist gaussian
velocity all create 500 123456 rot yes mom yes dist gaussian
fix 1 all nve
fix 2 all temp/csvr ${T_ext} ${T_ext} 1.0 ${seed}
fix 2 all temp/csvr 500 ${T_ext} 1.0 ${seed}
fix 2 all temp/csvr 500 500 1.0 ${seed}
fix 2 all temp/csvr 500 500 1.0 123456
fix 3 all momentum 100 linear 1 1 1
run ${Nrun}
run 5
Neighbor list info ...
  update every 1 steps, delay 0 steps, check yes
  max neighbors/atom: 2000, page size: 100000
  master list distance cutoff = 9
  ghost atom cutoff = 9
  binsize = 4.5, bins = 21 25 24
  1 neighbor lists, perpetual/occasional/extra = 1 0 0
  (1) pair aenet, perpetual
      attributes: full, newton on
      pair build: full/bin/atomonly
      stencil: full/bin/3d
      bin: standard
Per MPI rank memory allocation (min/avg/max) = 72.23 | 72.23 | 72.23 Mbytes
Step Time Temp TotEng PotEng KinEng 
       0            0          500   -204118.74   -208640.97    4522.2308 
       1        0.001    500.69738   -204117.48   -208646.01    4528.5382 
       2        0.002    501.96302   -204117.13   -208657.12    4539.9853 
       3        0.003    503.73875   -204117.79   -208673.83    4556.0458 
       4        0.004    506.10599   -204117.97   -208695.42    4577.4562 
       5        0.005    508.74819   -204118.19   -208719.55    4601.3535 
Loop time of 57.2658 on 1 procs for 5 steps with 69972 atoms

Performance: 0.008 ns/day, 3181.431 hours/ns, 0.087 timesteps/s
99.7% CPU use with 1 MPI tasks x 1 OpenMP threads

MPI task timing breakdown:
Section |  min time  |  avg time  |  max time  |%varavg| %total
---------------------------------------------------------------
Pair    | 57.248     | 57.248     | 57.248     |   0.0 | 99.97
Neigh   | 0          | 0          | 0          |   0.0 |  0.00
Comm    | 0.0050375  | 0.0050375  | 0.0050375  |   0.0 |  0.01
Output  | 0.00070143 | 0.00070143 | 0.00070143 |   0.0 |  0.00
Modify  | 0.0079672  | 0.0079672  | 0.0079672  |   0.0 |  0.01
Other   |            | 0.004211   |            |       |  0.01

Nlocal:    69972 ave 69972 max 69972 min
Histogram: 1 0 0 0 0 0 0 0 0 0
Nghost:    46246 ave 46246 max 46246 min
Histogram: 1 0 0 0 0 0 0 0 0 0
Neighs:    0 ave 0 max 0 min
Histogram: 1 0 0 0 0 0 0 0 0 0
FullNghs:  1.28008e+07 ave 1.28008e+07 max 1.28008e+07 min
Histogram: 1 0 0 0 0 0 0 0 0 0

Total # of neighbors = 12800760
Ave neighs/atom = 182.941
Neighbor list builds = 0
Dangerous builds = 0
Total wall time: 0:01:09
