LAMMPS (4 Feb 2020)
OMP_NUM_THREADS environment is not set. Defaulting to 1 thread. (../comm.cpp:94)
  using 1 OpenMP thread(s) per MPI task
variable Nrun   equal 5  #
variable Nevery equal 1
variable T_ext  equal 500.0
variable seed   equal 123456

#-----------------------------------------------------------------------

clear
OMP_NUM_THREADS environment is not set. Defaulting to 1 thread. (../comm.cpp:94)
  using 1 OpenMP thread(s) per MPI task
units metal    # eV, Angstrom, g/mol, ps, K, bar
dimension 3
boundary p p p
atom_style atomic

# read initial structure from data file
read_data aLiSi.data
  orthogonal box = (0 0 0) to (26.5244 31.5919 30.0231)
  1 by 1 by 1 MPI processor grid
  reading atoms ...
  1632 atoms
  read_data CPU = 0.0276201 secs

# potential
pair_style aenet Li.ann Si.ann
pair_coeff * *

#set carrier species
#group Li type 1

# Configure output of thermodynamic quantities
#thermo 1
#thermo_style custom step time temp etotal pe ke
# thermo_modify norm yes  # normalize extensive quantitites by number of atoms

# EoM integration
# run_style  verlet
timestep   0.001  # 1fs, 0.001ps

# Neighbor list
neighbor 1.0 bin
neigh_modify once no every 1 delay 0 check yes

# Configure output of thermodynamic quantities
thermo 1
thermo_style custom step time temp etotal pe ke # c_msd[4]  v_fitslope
# thermo_modify norm yes  # normalize extensive quantitites by number of atoms


# NVT simulation with Bussi thermostat
velocity all create ${T_ext} ${seed} rot yes mom yes dist gaussian
velocity all create 500 ${seed} rot yes mom yes dist gaussian
velocity all create 500 123456 rot yes mom yes dist gaussian
fix 1 all nve
fix 2 all temp/csvr ${T_ext} ${T_ext} 1.0 ${seed}
fix 2 all temp/csvr 500 ${T_ext} 1.0 ${seed}
fix 2 all temp/csvr 500 500 1.0 ${seed}
fix 2 all temp/csvr 500 500 1.0 123456
fix 3 all momentum 100 linear 1 1 1
run ${Nrun}
run 5
Neighbor list info ...
  update every 1 steps, delay 0 steps, check yes
  max neighbors/atom: 2000, page size: 100000
  master list distance cutoff = 9
  ghost atom cutoff = 9
  binsize = 4.5, bins = 6 8 7
  1 neighbor lists, perpetual/occasional/extra = 1 0 0
  (1) pair aenet, perpetual
      attributes: full, newton on
      pair build: full/bin/atomonly
      stencil: full/bin/3d
      bin: standard
Per MPI rank memory allocation (min/avg/max) = 4.441 | 4.441 | 4.441 Mbytes
Step Time Temp TotEng PotEng KinEng 
       0            0          500     -4760.85   -4866.2616    105.41165 
       1        0.001    502.13526   -4760.6532   -4866.5151    105.86181 
       2        0.002    504.32955   -4760.5946    -4866.919    106.32442 
       3        0.003    506.45282   -4760.6858   -4867.4579    106.77205 
       4        0.004    509.56228   -4760.6817   -4868.1093     107.4276 
       5        0.005     512.9944   -4760.6668    -4868.818    108.15117 
Loop time of 1.46819 on 1 procs for 5 steps with 1632 atoms

Performance: 0.294 ns/day, 81.566 hours/ns, 3.406 timesteps/s
94.9% CPU use with 1 MPI tasks x 1 OpenMP threads

MPI task timing breakdown:
Section |  min time  |  avg time  |  max time  |%varavg| %total
---------------------------------------------------------------
Pair    | 1.4675     | 1.4675     | 1.4675     |   0.0 | 99.95
Neigh   | 0          | 0          | 0          |   0.0 |  0.00
Comm    | 0.00022268 | 0.00022268 | 0.00022268 |   0.0 |  0.02
Output  | 0.00012302 | 0.00012302 | 0.00012302 |   0.0 |  0.01
Modify  | 0.00027943 | 0.00027943 | 0.00027943 |   0.0 |  0.02
Other   |            | 7.892e-05  |            |       |  0.01

Nlocal:    1632 ave 1632 max 1632 min
Histogram: 1 0 0 0 0 0 0 0 0 0
Nghost:    5606 ave 5606 max 5606 min
Histogram: 1 0 0 0 0 0 0 0 0 0
Neighs:    0 ave 0 max 0 min
Histogram: 1 0 0 0 0 0 0 0 0 0
FullNghs:  298560 ave 298560 max 298560 min
Histogram: 1 0 0 0 0 0 0 0 0 0

Total # of neighbors = 298560
Ave neighs/atom = 182.941
Neighbor list builds = 0
Dangerous builds = 0
Total wall time: 0:00:01
