ITEM: TIMESTEP
0
ITEM: NUMBER OF ATOMS
192
ITEM: BOX BOUNDS pp pp pp
0.0000000000000000e+00 1.2432000000000000e+01
0.0000000000000000e+00 1.2432000000000000e+01
0.0000000000000000e+00 1.2432000000000000e+01
ITEM: ATOMS type fx fy fz 
2 -0.230567 -0.576646 0.0989826 
1 -0.903026 0.320121 0.940813 
1 1.0559 0.35524 -0.859809 
2 0.360433 1.34928 -1.98762 
1 -0.321749 -0.278328 0.481251 
1 -0.0750453 -1.132 0.663086 
2 -0.062074 0.183399 0.0106017 
1 0.783932 -0.248465 -0.282529 
1 -0.667553 0.182643 -0.11447 
2 -1.31159 -1.24689 0.298239 
1 0.599411 0.762182 0.462206 
1 0.719543 0.190045 -0.542554 
2 -0.606036 0.729991 -0.833326 
1 0.425883 -0.42491 0.585179 
1 0.209789 -0.0253963 0.155637 
2 -0.473202 1.38767 0.444875 
1 0.263606 -1.30921 0.517334 
1 -0.238974 0.132467 -0.225153 
2 -1.40543 0.503245 1.03324 
1 -0.0780379 0.0419722 -0.324969 
1 1.1169 -0.601413 -0.44633 
2 0.241132 -0.0262879 0.469545 
1 -0.154861 0.096211 -0.191051 
1 0.544339 -0.287527 -0.677255 
2 1.76805 -1.47661 0.774968 
1 -1.43618 1.35545 -0.746535 
1 -0.424148 0.0760678 0.048374 
2 0.628335 0.507451 -0.331963 
1 -0.658816 -0.637222 0.282993 
1 -0.0273463 0.177586 -0.0116431 
2 -0.378273 -0.831289 1.93381 
1 -0.246062 -0.0191063 0.335842 
1 0.30606 1.08241 -1.73754 
2 -0.0544167 1.49999 -0.0945389 
1 0.12125 -1.27359 -0.1989 
1 -0.331348 -0.504339 0.386269 
2 -0.0129036 -0.120806 -0.391031 
1 -0.348741 0.189578 -0.0905781 
1 0.123731 0.00946168 0.375342 
2 -0.481669 0.0222606 0.867565 
1 0.409106 -0.244683 -0.184088 
1 0.00791294 0.334205 -0.683768 
2 1.59753 0.677865 0.162331 
1 -1.33806 -0.395967 0.186335 
1 0.00795121 -0.240491 -0.204629 
2 0.872646 -0.840144 -1.0848 
1 -0.142113 0.421873 0.582415 
1 -0.728629 0.338423 0.494408 
2 0.365015 -0.124743 -1.61529 
1 0.0847403 -0.0766872 0.785567 
1 -0.865474 -0.177472 1.15394 
2 0.203175 0.574103 2.76474 
1 -0.683137 -0.952556 -0.815887 
1 0.361287 0.886311 -2.07277 
2 -0.82028 0.304737 0.694062 
1 -0.331506 -0.433021 0.642224 
1 0.686444 0.0646294 -1.13484 
2 -0.707359 -2.5651 -0.664088 
1 1.51003 1.34345 0.263557 
1 -0.936 0.792234 -0.0393542 
2 0.725985 0.125608 0.907088 
1 -0.684298 0.164913 -0.992831 
1 -0.155351 -0.380288 0.427976 
2 -0.767792 1.39267 0.00770589 
1 0.0617376 -0.756761 -0.057154 
1 0.609333 -0.445141 -0.143657 
2 -0.117108 0.698407 -0.105868 
1 0.0303187 -0.0688814 -0.0804332 
1 0.437044 -0.842677 -0.0521374 
2 -1.40726 0.401084 0.475868 
1 0.562479 0.01553 0.00170873 
1 0.846307 -0.36118 -0.934904 
2 -1.67356 0.713973 0.0423562 
1 0.383359 -0.455929 0.0191437 
1 1.10154 -0.318139 0.16499 
2 0.3113 -1.97862 -0.323837 
1 1.01731 0.700008 -0.287199 
1 -0.968453 1.08643 -0.130966 
2 0.346407 0.00724038 0.0514551 
1 -0.332374 0.0712455 0.107905 
1 0.0584644 -0.47256 -0.375313 
2 0.567115 0.31294 0.488686 
1 -0.0698458 -0.42108 -0.628586 
1 -0.322446 -0.050568 0.0454293 
2 -1.08066 -0.903427 -0.275198 
1 0.8493 0.53441 -0.192375 
1 0.131428 0.347438 0.700254 
2 3.00974 -0.970884 0.148833 
1 -1.16351 -0.476163 -0.268252 
1 -1.81803 1.06776 -0.0827557 
2 0.616821 0.00050109 0.180488 
1 -0.444208 0.0250979 -0.727305 
1 -0.0139855 -0.209057 0.394984 
2 -0.589924 -0.096968 -1.33842 
1 -0.167137 0.603012 1.87493 
1 0.829907 -0.380105 -0.351063 
2 -0.436473 -0.110145 0.167183 
1 0.0151605 0.322281 -0.353296 
1 0.49844 -0.00801911 0.193014 
2 2.50872 0.868587 -0.187163 
1 -0.806755 -0.224777 0.0879257 
1 -1.12978 -0.393572 0.118065 
2 1.83826 -1.53106 0.998241 
1 -1.02877 0.952591 0.521509 
1 -0.894735 0.516417 -0.918776 
2 -0.0425463 -0.459898 0.0623006 
1 -0.216002 0.362974 -0.0922284 
1 0.162797 -0.0230622 -0.0947919 
2 0.115188 0.169299 -0.34543 
1 0.00858048 0.536919 0.172881 
1 0.292331 -0.436954 0.0444836 
2 0.616006 -1.08659 0.927059 
1 -0.544624 0.483028 -0.48621 
1 0.555956 0.826372 -0.689083 
2 1.74013 -1.9325 -0.571176 
1 -0.00637964 -0.362609 0.212254 
1 -1.66206 2.21663 0.452009 
2 0.371746 1.21868 0.367538 
1 -0.168428 -0.242011 0.244461 
1 -0.528108 -0.814084 -0.381969 
2 0.544662 -0.231071 -0.167391 
1 0.149851 0.105964 -0.0131893 
1 -0.488228 0.169386 0.430015 
2 -0.376338 -0.0309949 -0.271076 
1 -0.646581 -0.256128 -0.180486 
1 0.690811 0.562299 0.900049 
2 0.101901 2.13134 0.916717 
1 -0.40719 -0.779799 -0.477215 
1 -0.134682 -1.1262 -0.427499 
2 -0.00877197 0.0397385 0.966277 
1 -0.410712 0.0970615 -0.31281 
1 0.305647 0.0200892 -0.560513 
2 0.6828 2.72986 -0.82147 
1 0.0759293 -2.44104 1.59677 
1 -0.570697 -0.315687 -0.605964 
2 -0.6449 0.55127 1.14191 
1 0.17318 0.293315 -0.973424 
1 0.0682885 -0.593192 -0.509461 
2 -0.460106 -1.78077 0.733204 
1 0.433305 0.359981 0.0739279 
1 -0.0768401 1.49586 -0.762523 
2 0.553502 -1.68 1.06819 
1 -0.450761 0.43684 -0.737357 
1 0.0451165 1.35882 -0.232036 
2 -0.642153 -0.508916 -0.400453 
1 -0.166505 0.198905 -0.2147 
1 1.02972 -0.158018 0.343025 
2 2.25744 -0.569983 1.25489 
1 -0.825852 -0.33523 -0.734769 
1 -1.70571 1.43319 -0.401322 
2 0.487218 0.172502 0.517828 
1 -0.980116 -0.0265221 -0.0612371 
1 0.484585 -0.341903 -0.0336437 
2 1.37591 -0.481455 1.0012 
1 -0.169712 0.0239454 -0.282537 
1 -0.923931 0.539596 -0.265362 
2 -1.62999 -3.06211 -0.437433 
1 0.680615 3.19917 0.44292 
1 0.888621 -0.558212 -0.241152 
2 0.555398 0.0930833 -1.18952 
1 -0.48889 -0.0232938 1.70045 
1 0.342898 -0.184306 -0.374788 
2 -0.28266 0.881867 -0.702272 
1 0.0363128 -0.799013 0.344966 
1 0.461536 0.0205723 0.0558303 
2 0.41822 0.679442 0.765794 
1 0.645954 -0.393721 -0.494959 
1 -1.10183 0.0119184 -0.0698875 
2 -0.385194 0.313661 -0.15499 
1 -0.0385673 0.0198252 -0.467204 
1 0.400913 0.329788 0.851235 
2 0.208001 -0.541634 1.3815 
1 -0.142216 0.428268 -1.09248 
1 -0.0491422 0.255044 -0.382105 
2 -1.52994 -1.0932 -0.453504 
1 0.310112 0.598127 -0.154822 
1 1.21072 0.383085 0.678546 
2 0.329377 -0.840055 -0.313322 
1 -0.235853 0.935971 -0.180798 
1 -0.0957809 -0.183288 -0.00565982 
2 -0.317201 0.491729 0.0875786 
1 0.602663 -0.111894 0.291338 
1 -0.294526 -0.844107 -0.459614 
2 -0.00816596 -0.258431 -0.862767 
1 0.0619396 0.337346 0.557136 
1 0.30545 -0.060613 0.151428 
2 0.666022 0.317829 -0.0185067 
1 -0.35278 0.0535161 -0.037548 
1 -0.442654 -0.643109 0.0234719 
2 0.141493 -0.503715 0.108999 
1 -0.891692 0.0377556 -0.576124 
1 0.778619 0.299662 0.28193 
ITEM: TIMESTEP
4
ITEM: NUMBER OF ATOMS
192
ITEM: BOX BOUNDS pp pp pp
0.0000000000000000e+00 1.2432000000000000e+01
0.0000000000000000e+00 1.2432000000000000e+01
0.0000000000000000e+00 1.2432000000000000e+01
ITEM: ATOMS type fx fy fz 
2 -0.301163 -0.864358 -0.436284 
1 -0.334203 0.816594 0.522881 
1 0.452009 0.218831 -0.00529999 
2 0.237773 0.341319 -1.5499 
1 -0.218689 0.0546897 0.283735 
1 -0.061489 -0.402901 0.462467 
2 -0.325292 -0.286655 -0.560037 
1 1.33791 0.0688787 -0.184033 
1 -0.909484 0.346783 0.440928 
2 0.791803 0.987235 1.31846 
1 -0.712657 -1.28858 -0.943981 
1 -0.0523186 -0.0212535 -0.227603 
2 0.172331 0.0860345 1.10117 
1 -0.831028 0.551524 -1.17475 
1 0.752552 -0.47674 -0.0923403 
2 0.31686 1.11517 -0.909181 
1 0.0614691 -1.1871 0.668808 
1 -0.842225 0.332051 0.871187 
2 -0.391793 -0.174449 0.432307 
1 -0.00380669 -0.406277 -0.346998 
1 0.0310117 0.585198 0.0931691 
2 -0.461229 0.550947 -0.561291 
1 0.382183 -0.203546 1.08283 
1 0.613265 -0.258228 -0.86191 
2 1.47866 -1.6608 0.940427 
1 -0.666338 1.20384 -1.00205 
1 -0.993781 0.33057 0.111269 
2 0.922441 0.846475 -0.32276 
1 -0.93303 -1.05696 0.413431 
1 -0.0498999 0.244871 -0.100575 
2 -0.0450678 -0.267186 -0.365166 
1 -0.0722423 0.58204 0.690739 
1 -0.130018 -0.0917552 0.111781 
2 0.323939 1.50289 -1.07387 
1 0.170326 -1.17185 -0.219069 
1 -0.631926 -0.543099 1.53227 
2 0.260115 0.088859 -0.188292 
1 -0.396051 -0.0831823 -0.0546393 
1 -0.0178375 -0.00449135 0.143909 
2 -0.588211 0.0619212 1.04486 
1 0.436462 -0.332137 -0.0359408 
1 0.110691 0.320395 -0.977347 
2 0.500388 1.42361 1.44587 
1 -0.736973 -0.0403172 0.0205414 
1 0.564054 -1.26125 -1.29797 
2 -0.725538 0.424193 -0.234742 
1 -0.163928 -0.344379 0.0482908 
1 0.779471 -0.0541975 0.221799 
2 0.873132 0.49677 0.474877 
1 -1.05648 -0.572979 -0.0258608 
1 -0.232015 -0.246352 -0.114565 
2 0.460898 0.859101 1.2037 
1 -0.610441 -0.704979 -0.721037 
1 0.0100533 0.279337 -0.686373 
2 0.605753 1.1283 -1.15062 
1 -0.186787 -0.179275 0.436865 
1 -0.701203 -1.15862 0.831081 
2 1.58959 -2.15106 -0.403201 
1 -0.0321642 0.274663 -0.068159 
1 -1.56964 1.4296 0.168415 
2 -0.342005 -0.221776 -0.0733335 
1 -0.33474 -0.24311 -0.305981 
1 0.569164 0.37887 0.6101 
2 -0.0530731 1.23962 0.188716 
1 -0.282692 -0.78988 -0.19615 
1 0.234932 -0.380037 -0.311313 
2 1.5016 -1.77008 0.202345 
1 -0.41138 0.055655 -0.118977 
1 -0.76127 1.52459 -0.370709 
2 -0.618202 -0.389007 0.758094 
1 0.094114 0.710749 -0.421859 
1 0.737883 -0.279049 -0.882736 
2 -2.17326 -0.315934 -0.499423 
1 0.757415 0.614485 0.499199 
1 1.2107 -0.365602 0.199646 
2 -0.0819287 -0.226471 0.152178 
1 0.567674 0.633322 -0.275676 
1 -0.108139 -0.62816 -0.369514 
2 0.733832 -2.14256 -0.992579 
1 0.185212 1.46 1.15707 
1 -0.88189 0.281096 -0.275351 
2 0.252185 0.164272 -0.0240872 
1 -0.0849119 -0.168054 -0.378001 
1 0.00351933 -0.13136 0.338009 
2 -0.691862 -1.1885 -1.02369 
1 0.968281 0.34804 -0.47147 
1 -0.55002 0.834597 1.76271 
2 2.28498 0.41898 0.234534 
1 -1.34978 -0.950078 -0.365721 
1 -0.882349 0.132463 -0.108279 
2 0.535977 -1.02631 -1.23032 
1 -0.286089 0.13771 1.28282 
1 -0.23567 0.616255 -0.211807 
2 -0.240196 -0.121158 -0.719467 
1 -0.436478 0.590425 1.40797 
1 0.697934 -0.431454 -0.559342 
2 -0.340506 0.27064 -0.538251 
1 -0.79122 0.459357 -0.171256 
1 1.17153 -0.457111 0.743634 
2 -0.569407 1.67518 -1.0211 
1 1.94018 -1.42914 1.08929 
1 -0.888619 0.130754 0.015376 
2 -0.126612 0.439557 0.707816 
1 0.253094 -0.750119 -0.271702 
1 -0.210547 0.195411 0.0269042 
2 -0.165298 -1.17547 -0.407887 
1 -0.00604794 1.38184 0.0297683 
1 0.0504516 -0.337529 0.24373 
2 0.434997 0.23498 -0.761696 
1 -0.153166 -0.0745149 0.34306 
1 -0.0567327 0.12678 0.365149 
2 0.0211366 -0.232929 0.44107 
1 0.128457 0.261326 -0.138754 
1 0.352614 0.256503 -0.56337 
2 1.33794 2.07242 0.0479735 
1 -0.967637 -1.03702 0.325721 
1 -0.204351 -1.11247 -0.33632 
2 0.324937 0.0450994 -0.862285 
1 -0.521504 -0.223933 0.449098 
1 -0.170895 0.153171 0.579402 
2 1.08844 -0.196227 0.58859 
1 0.129262 -0.0087662 -0.696619 
1 -1.0017 0.21186 0.264219 
2 0.903419 0.552688 1.47945 
1 -0.457493 -0.220463 0.101757 
1 -0.730686 -0.164841 -1.1607 
2 -0.531882 0.607871 0.400036 
1 -0.0707222 -0.185399 -0.292023 
1 0.243541 -0.227738 -0.122906 
2 -0.523256 -0.629193 -0.991855 
1 1.08193 1.28931 0.61412 
1 -0.63266 -0.512338 0.473859 
2 -0.323528 0.856655 -0.841706 
1 -0.217601 -0.745507 0.335476 
1 0.774211 -0.0821794 0.63904 
2 0.399864 0.531442 -0.0380422 
1 -0.130055 -0.317684 -0.375435 
1 -0.790711 0.130766 0.0172534 
2 -0.263399 0.474448 -0.478688 
1 0.489609 0.0749298 0.30633 
1 -0.258551 -0.455317 0.313303 
2 -0.550171 -1.68916 0.168588 
1 0.435979 0.211768 -0.0591025 
1 0.284252 1.62507 -0.0423578 
2 0.496826 -1.80191 0.118058 
1 0.288754 0.911024 0.220648 
1 -0.545377 0.383134 -0.471093 
2 0.971572 -1.91273 -0.238482 
1 0.461879 0.661825 0.566742 
1 -1.64096 1.69437 -0.324152 
2 0.143187 0.347171 1.0756 
1 0.0144144 -0.11019 -0.153101 
1 -0.117437 -0.43021 -0.438447 
2 -0.366041 -1.56943 -0.348305 
1 0.597617 1.90572 0.404476 
1 0.0861981 -0.294899 0.47911 
2 0.512582 -0.613244 -0.731282 
1 0.373828 -0.714456 -0.267304 
1 -0.963446 1.02275 0.778042 
2 0.838369 -0.169822 -0.416141 
1 -0.457848 -0.115008 1.42636 
1 -0.0467255 0.16719 -0.855112 
2 1.15906 0.873001 -0.0389019 
1 -0.00516088 -0.346622 -0.00779425 
1 -0.959342 -0.325837 -0.252238 
2 1.13169 0.195374 0.528284 
1 0.196266 0.0226285 -0.00795922 
1 -1.41512 -0.0720376 -0.151543 
2 -0.757999 0.778625 2.05084 
1 1.08126 -0.0499619 -1.85076 
1 -0.36886 0.0180442 0.0653257 
2 -1.37511 0.474373 -1.09604 
1 1.28542 -0.530669 1.16946 
1 0.123868 0.22261 -0.173649 
2 -1.86465 -1.81724 -0.192176 
1 0.294201 0.989105 -0.47446 
1 1.72303 0.611289 0.81264 
2 0.764795 -1.0558 -0.9333 
1 -0.496783 1.03034 -0.0095005 
1 -0.265807 -0.126173 0.468102 
2 -0.698835 0.777724 0.0959359 
1 0.987321 -0.981377 0.110361 
1 -0.261434 -0.19376 -0.392437 
2 -0.307605 0.850302 -0.183654 
1 0.233589 -0.510638 -0.0117828 
1 0.499207 -0.347844 0.127802 
2 -1.43932 -0.108423 0.214362 
1 1.00802 -0.357377 0.0876559 
1 0.10073 0.20493 -0.247614 
2 -0.0901409 -0.821877 -0.0237073 
1 -0.78979 0.243728 -0.536413 
1 0.889571 0.557203 0.259738 
ITEM: TIMESTEP
8
ITEM: NUMBER OF ATOMS
192
ITEM: BOX BOUNDS pp pp pp
0.0000000000000000e+00 1.2432000000000000e+01
0.0000000000000000e+00 1.2432000000000000e+01
0.0000000000000000e+00 1.2432000000000000e+01
ITEM: ATOMS type fx fy fz 
2 0.210607 -0.618524 -0.987714 
1 0.0133501 0.852538 -0.0607516 
1 -0.413808 -0.0064251 1.09591 
2 0.0786752 -0.988693 0.257973 
1 -0.187931 0.140779 -0.178169 
1 0.0505092 0.929708 -0.685184 
2 0.278706 0.12783 -0.364867 
1 0.27093 -0.0968271 -0.022114 
1 -0.463724 0.117391 0.190193 
2 1.65783 1.17382 0.98501 
1 -0.641049 -1.28191 -0.951675 
1 -0.97943 -0.150923 0.112463 
2 0.592846 -0.258928 1.2373 
1 -0.86057 0.632366 -1.3758 
1 0.431348 -0.175823 -0.0348047 
2 0.39132 -0.996327 -0.218327 
1 -0.195068 0.911795 0.157952 
1 -0.637563 0.392997 0.693605 
2 0.187691 -0.6687 0.122738 
1 0.142628 -0.565966 -0.336412 
1 -0.661566 1.18584 0.347679 
2 -0.0430517 0.232488 -1.04748 
1 0.362827 -0.126377 0.884247 
1 0.053771 0.178676 -0.188337 
2 -1.13505 -0.189647 0.839211 
1 1.41259 -0.577399 -0.137757 
1 -0.468194 0.625392 -0.575572 
2 -0.0381256 0.0328901 -0.0796509 
1 -0.233912 -0.326279 0.151853 
1 0.112073 0.401868 -0.0671891 
2 0.655218 0.980334 -1.86397 
1 0.154199 0.601823 -0.0931015 
1 -0.902436 -1.39742 2.24502 
2 -0.246131 -0.353112 -0.31819 
1 0.310214 0.461698 0.531155 
1 -0.106982 -0.394444 0.00413016 
2 0.375022 0.162218 -0.0887801 
1 -0.22323 -0.12387 0.1996 
1 -0.146769 -0.0281878 -0.0968123 
2 0.0520681 0.0327052 -0.589453 
1 -0.312679 0.00311037 0.422983 
1 0.253927 -0.0409534 0.124971 
2 -1.36555 0.821599 1.61537 
1 0.979614 0.200185 -0.417524 
1 0.654803 -0.92688 -1.05673 
2 -1.24639 0.885069 0.408926 
1 -0.183842 -0.701212 -0.257338 
1 1.26581 -0.200285 0.0217394 
2 0.215734 0.472725 2.18182 
1 -1.07084 -0.567404 -0.552713 
1 0.435723 -0.171309 -1.34638 
2 0.00847539 0.546452 -1.83348 
1 0.125089 0.546567 0.510371 
1 -0.21472 -0.728184 1.0974 
2 0.647526 0.772732 -1.31467 
1 -0.0206299 -0.00598239 0.026795 
1 -0.779542 -1.06319 1.20498 
2 1.91078 0.589244 0.153673 
1 -2.06651 -1.40601 -0.423523 
1 0.187424 0.437118 0.0578848 
2 -0.719519 0.351547 -0.469119 
1 0.27055 -0.728247 0.563769 
1 0.28354 0.306975 -0.00834451 
2 0.318223 -0.515325 0.406883 
1 0.00785595 0.204481 -0.332202 
1 -0.485554 0.234639 -0.55281 
2 0.857878 -1.61604 0.140595 
1 -0.333558 0.305622 -0.133349 
1 -0.306954 1.1439 -0.295784 
2 0.867982 -0.922778 -0.366603 
1 0.00180801 0.90145 -0.475083 
1 -0.480982 0.0402035 0.350835 
2 -0.151677 -0.259533 0.0389355 
1 0.531173 0.431588 0.347795 
1 -0.467807 -0.204919 -0.197786 
2 0.158488 1.97047 0.68983 
1 -0.630601 -0.326356 -0.466545 
1 0.710686 -1.96202 -0.452958 
2 0.122352 -0.888266 -0.492599 
1 0.437853 -0.00771857 0.37524 
1 -0.597936 0.524458 0.0285852 
2 -0.154874 -0.259818 -1.02066 
1 0.0894222 0.320723 0.395773 
1 0.173021 -0.16647 0.53314 
2 0.377095 -0.137782 -0.251942 
1 -0.4231 -0.338671 -0.278581 
1 -0.260584 0.307029 0.705798 
2 -0.773552 1.64548 0.199488 
1 -0.633832 -0.221234 -0.188843 
1 1.36807 -1.93764 -0.326074 
2 0.436554 -0.929993 -1.16799 
1 -0.297892 0.00160103 1.43585 
1 -0.234148 0.588299 -0.400339 
2 1.00447 0.157396 1.76515 
1 -0.354526 -0.0722695 -1.29147 
1 -0.707588 -0.104862 -0.261078 
2 0.096318 -0.0749424 -0.00868939 
1 -0.661276 0.500503 -0.0799916 
1 0.555068 -0.0363722 0.111946 
2 -0.410493 0.513155 -0.467097 
1 1.09747 -0.744498 0.666 
1 -0.248101 0.669314 -0.11296 
2 -1.58475 1.57999 -0.312795 
1 0.784724 -1.23814 -0.769941 
1 0.739198 -0.453172 1.35408 
2 -0.0519979 -0.610613 -0.200657 
1 -0.0470976 0.869187 -0.174602 
1 0.0732103 -0.349217 0.215405 
2 0.616236 0.35277 -0.992801 
1 -0.131619 -0.684505 0.440792 
1 -0.307092 0.59757 0.474109 
2 -0.25364 1.14458 -0.701666 
1 0.872822 0.0855356 0.298365 
1 -0.156917 -0.829943 0.118902 
2 -0.0155905 2.39941 0.2304 
1 0.0631502 -0.225872 0.311331 
1 0.24171 -2.24977 -0.539877 
2 -0.0525528 -0.751308 -1.17466 
1 -0.336284 -0.0467608 0.246129 
1 0.0221837 0.65045 1.03999 
2 -0.434219 0.0688853 0.73167 
1 0.345068 -0.0838116 -0.594311 
1 0.279869 -0.0481775 -0.0639853 
2 0.628146 0.356376 1.68772 
1 0.335081 0.260471 0.0723878 
1 -1.28389 -0.563999 -1.46426 
2 -0.878252 -0.922516 -0.2907 
1 0.00976574 0.514444 0.247278 
1 0.517307 0.458719 0.0473717 
2 0.16512 -0.059023 -0.605509 
1 0.348252 0.640109 0.211881 
1 -0.53154 -0.479298 0.505501 
2 -0.265654 -1.38137 0.782753 
1 -0.258769 1.54743 -1.45684 
1 0.832712 -0.117184 0.767399 
2 1.07885 0.999553 -0.843351 
1 -0.582354 -0.917748 0.348139 
1 -0.93739 0.419104 0.173908 
2 0.679869 2.21914 -1.15878 
1 -0.20998 -0.227514 0.109792 
1 -0.399683 -1.82716 1.19531 
2 -1.23782 0.199136 -0.313648 
1 1.0514 0.170117 0.482334 
1 0.355403 -0.131833 -0.0977815 
2 1.0627 -1.66747 0.491508 
1 0.295679 0.643804 0.212598 
1 -1.13378 0.464347 -0.823538 
2 -0.893429 -0.163111 -0.52846 
1 0.999741 0.797382 1.02687 
1 -0.164207 -0.36816 -0.459209 
2 -0.457906 0.531176 0.916567 
1 0.905209 -0.254007 -0.13196 
1 -0.380161 -0.385544 -0.273849 
2 -0.794138 -0.0649238 -0.737751 
1 0.383096 0.813828 0.19495 
1 0.694466 -0.760857 1.01213 
2 0.476795 0.850273 -0.483661 
1 0.387343 -2.31439 -0.737045 
1 -1.09526 1.1972 0.849081 
2 0.0686744 0.182201 1.06812 
1 0.449116 -0.359259 -0.553768 
1 -0.232455 0.0965625 -0.301354 
2 0.698163 0.0471986 0.644118 
1 -0.0125278 0.419421 -0.567328 
1 -0.585709 -0.06405 -0.398584 
2 -0.621313 -0.491368 -0.00142833 
1 -0.324859 0.464825 0.539014 
1 0.749183 0.0466464 -0.0929062 
2 0.783264 1.25159 1.64661 
1 0.0115219 -0.357755 -0.595506 
1 -0.820831 -0.134847 -0.755504 
2 -0.679013 0.816259 -1.72399 
1 0.88688 -0.642229 1.34637 
1 -0.164376 -0.0448389 0.337914 
2 0.624812 -0.582242 0.976483 
1 -0.102871 0.288481 -0.103528 
1 -0.226065 0.0931326 -0.679791 
2 0.115112 -0.0189315 -0.711441 
1 0.117141 0.0254939 0.138923 
1 -0.181749 -0.167455 0.255609 
2 -0.336436 -0.66418 -0.0377888 
1 0.353983 -0.791543 -0.0774541 
1 0.0757897 1.10184 -0.0720453 
2 -0.135414 1.09507 0.651368 
1 0.320536 -0.905726 -0.299515 
1 0.26719 -0.213864 -0.408191 
2 -1.68013 -0.744469 0.359448 
1 0.702879 -0.212115 0.122779 
1 0.475452 0.721685 -0.279738 
2 -0.492205 0.113314 -0.273213 
1 0.301508 -0.0107075 0.353247 
1 0.160243 0.0124117 -0.347131 
ITEM: TIMESTEP
12
ITEM: NUMBER OF ATOMS
192
ITEM: BOX BOUNDS pp pp pp
0.0000000000000000e+00 1.2432000000000000e+01
0.0000000000000000e+00 1.2432000000000000e+01
0.0000000000000000e+00 1.2432000000000000e+01
ITEM: ATOMS type fx fy fz 
2 0.584514 0.721753 -0.0954226 
1 -0.322052 -0.114121 -0.232691 
1 -0.292185 -0.425393 0.38915 
2 0.0161453 -1.1131 0.70269 
1 -0.193817 0.213749 -0.475925 
1 0.0796234 1.10785 -0.576508 
2 0.706104 0.792007 0.40219 
1 -1.12409 -0.473001 0.0521272 
1 0.381918 -0.192973 -0.515843 
2 -0.0155919 -1.04627 -0.0644164 
1 0.64216 0.933504 0.334944 
1 -0.611203 -0.0724509 -0.10436 
2 0.340592 0.0682591 -0.394346 
1 0.176131 -0.154736 -0.0141861 
1 -0.374834 0.475381 0.343565 
2 0.0275961 -1.78687 1.04575 
1 -0.470281 1.7047 -0.0277814 
1 -0.0423939 0.383572 -0.43687 
2 -0.441884 -0.506827 0.371611 
1 0.269179 -0.313307 -0.340358 
1 -0.286361 0.719517 0.0769915 
2 0.828518 -0.407917 -0.482525 
1 -0.139871 0.137977 -0.571557 
1 -0.493474 0.510631 0.644711 
2 -2.47137 0.954235 0.606898 
1 2.10866 -1.53729 0.543843 
1 0.219269 0.525714 -0.966082 
2 -1.49873 -1.34122 0.198945 
1 1.07657 1.04265 -0.235456 
1 0.256857 0.454241 0.0674779 
2 -0.253314 -0.148192 0.791787 
1 0.0890039 0.133141 -0.934725 
1 0.0610699 0.195651 0.518336 
2 -0.871798 -1.35762 0.69518 
1 0.342283 1.10215 0.651841 
1 0.485457 -0.103486 -1.20012 
2 0.276621 0.246221 -0.202106 
1 0.0420979 -0.0418631 0.466135 
1 -0.069113 -0.22706 -0.159445 
2 0.149187 0.124999 -1.64675 
1 -0.4389 0.156186 0.402905 
1 0.284218 -0.269958 1.14407 
2 -1.10341 -0.960153 -0.206816 
1 1.08963 0.210014 -0.376033 
1 0.221354 0.823214 0.677741 
2 -0.719304 0.0942615 -0.0942998 
1 -0.039796 -0.182141 0.378912 
1 0.593837 -0.062635 0.00116098 
2 -0.716178 0.114104 0.687461 
1 -0.23277 -0.218055 -0.485257 
1 0.417148 -0.172962 -0.0462153 
2 -0.377604 0.168588 -2.91298 
1 0.561318 1.2132 1.16835 
1 -0.0840063 -1.01287 1.51092 
2 -1.03216 -1.09656 0.209356 
1 0.0651306 0.301663 -0.155555 
1 0.719776 0.472203 -0.309604 
2 -1.79712 0.996999 0.25028 
1 -0.744913 -0.295646 -0.141258 
1 2.53133 -1.08277 -0.408558 
2 -0.342991 0.434673 0.341704 
1 0.477258 -0.417395 0.464058 
1 -0.331706 -0.058489 -0.872037 
2 0.256694 -1.32003 0.503878 
1 0.146435 1.12436 -0.513458 
1 -0.629739 0.168603 -0.571727 
2 -1.25416 0.37154 -0.0230425 
1 0.283635 0.568896 -0.142367 
1 1.08601 -1.05808 -0.0750945 
2 1.03109 -0.497336 -1.36083 
1 0.468527 0.275847 -0.0407303 
1 -1.14295 0.208352 1.08762 
2 1.37253 0.356579 0.590023 
1 -0.0488248 -0.571959 -0.008636 
1 -1.18194 0.229701 -0.379712 
2 1.29956 0.601836 0.44619 
1 -0.676952 -0.730258 -0.415477 
1 -0.333649 -0.260061 -0.330559 
2 -1.39252 1.03873 0.0772538 
1 0.608687 -1.55497 -0.470553 
1 0.71207 0.114606 0.264758 
2 0.118394 -0.564489 -1.21484 
1 0.0943041 0.4182 0.563591 
1 -0.14299 0.0172436 0.494739 
2 0.363767 1.2715 1.85479 
1 -1.2069 -0.665932 -0.154855 
1 0.561086 -0.925382 -1.59099 
2 -1.61946 -1.16867 -0.296995 
1 0.933088 1.42541 0.144906 
1 0.712055 -0.873476 -0.206266 
2 0.453482 0.218895 0.17563 
1 -0.414947 -0.349776 -0.251361 
1 -0.0893451 -0.209496 -0.0374761 
2 1.37141 0.347149 2.52949 
1 -0.244272 -0.38622 -2.21751 
1 -1.19283 -0.011094 -0.0859559 
2 0.353846 -0.73874 1.1769 
1 0.254619 0.35428 -0.252365 
1 -0.673977 0.772392 -0.951274 
2 1.42706 -0.61644 0.264535 
1 -1.41922 0.938921 -0.391281 
1 0.337659 0.196858 0.141059 
2 -0.654217 0.473142 0.184853 
1 0.174924 -0.297255 -0.489496 
1 0.385185 -0.166843 0.589601 
2 0.236935 0.819562 0.432229 
1 -0.374621 -0.718745 -0.500942 
1 0.220328 -0.135599 -0.187049 
2 0.904517 0.156211 -1.12727 
1 -0.322591 -0.706479 0.587816 
1 -0.457603 0.836858 0.419899 
2 0.132215 1.27939 -0.861689 
1 0.669936 0.217361 0.338817 
1 -0.365908 -0.98901 0.251275 
2 -0.535401 -0.0965872 -0.0335287 
1 1.24325 0.465398 0.193143 
1 -0.451898 -0.432817 -0.182253 
2 -0.246528 -0.177352 0.243281 
1 0.133971 0.251991 -0.108852 
1 -0.321137 -0.199791 -0.0504499 
2 -1.47749 0.134429 0.174413 
1 0.625139 -0.0217834 0.0933615 
1 1.04351 -0.185028 -0.206652 
2 -0.30617 -0.031404 0.3217 
1 0.646514 0.405514 0.0862109 
1 -0.69021 -0.337937 -0.209067 
2 -0.638486 -1.38295 -0.786948 
1 0.274596 0.925603 0.138341 
1 -0.0487739 0.448924 0.665238 
2 0.852607 0.910533 1.00636 
1 -1.08541 -1.00542 -0.422002 
1 0.324278 0.0772537 -0.505743 
2 0.526437 -1.33178 1.70369 
1 0.0073538 1.48236 -1.38648 
1 -0.176926 -0.183305 -0.262597 
2 0.178477 1.50821 -0.330618 
1 -0.563889 -0.770993 0.167596 
1 0.0597111 -0.120607 -0.11848 
2 1.65398 0.443128 0.692106 
1 -0.798951 -0.327503 -0.0966303 
1 -0.810219 -0.044586 -0.553959 
2 -0.723813 1.65501 0.138117 
1 0.595836 0.575381 0.248753 
1 0.364412 -1.88794 -0.291157 
2 0.514724 -0.0409471 0.546103 
1 -0.220496 -0.460273 -0.351204 
1 -0.163018 -0.00372921 -0.261861 
2 -0.966038 3.1051 1.13949 
1 -0.0578528 -0.479527 -0.322618 
1 1.11931 -2.42923 -0.665035 
2 0.136273 0.178829 -0.294031 
1 0.117002 0.00113606 0.317933 
1 -0.156717 -0.220981 0.499055 
2 0.143583 0.821804 0.347636 
1 -0.0178864 -1.36905 -0.332483 
1 0.0134868 0.409175 0.257433 
2 -1.49445 1.82469 0.578275 
1 0.357073 -2.03527 -0.715742 
1 0.90547 -0.0128399 -0.290659 
2 -0.291539 0.480877 1.42982 
1 0.868509 -0.312753 -1.72558 
1 -0.148569 -0.214362 0.664571 
2 -1.05997 -0.406044 0.586585 
1 0.223652 0.642966 -0.583511 
1 0.869942 0.269153 -0.409344 
2 -1.58758 -0.315705 0.269614 
1 -0.200923 0.233633 0.378188 
1 1.56883 0.088068 -0.247627 
2 1.32291 1.09243 0.0629522 
1 -0.8026 -0.695895 0.828355 
1 -0.475218 0.0960965 -0.552252 
2 1.20913 0.23605 -0.257537 
1 -0.888545 0.0965827 -0.558761 
1 -0.298787 -0.247832 0.936063 
2 2.25582 0.929268 0.987928 
1 -0.641711 -0.958367 0.538717 
1 -1.25714 -0.139747 -1.34195 
2 -0.741942 0.974413 -0.0332077 
1 0.813348 -0.882607 0.169972 
1 0.00496462 -0.209665 -0.368095 
2 1.14331 -1.97321 0.0455232 
1 -0.954732 0.481474 -0.128517 
1 -0.104625 1.16158 -0.0478597 
2 0.214601 0.298823 0.252125 
1 0.269113 -0.344385 0.373385 
1 0.0437346 -0.0080874 -0.719607 
2 -0.23288 -1.02285 0.249581 
1 -0.645192 0.356315 0.220399 
1 0.378934 0.443111 -0.0379279 
2 -0.291042 0.958383 -0.224117 
1 0.852924 -0.136498 0.89543 
1 -0.619763 -0.631799 -0.857557 
ITEM: TIMESTEP
16
ITEM: NUMBER OF ATOMS
192
ITEM: BOX BOUNDS pp pp pp
0.0000000000000000e+00 1.2432000000000000e+01
0.0000000000000000e+00 1.2432000000000000e+01
0.0000000000000000e+00 1.2432000000000000e+01
ITEM: ATOMS type fx fy fz 
2 0.376255 2.03848 1.13791 
1 -0.417972 -0.926165 -0.256223 
1 0.154599 -0.899338 -0.777088 
2 0.0643968 -0.123908 -0.868049 
1 -0.143486 0.355504 -0.397095 
1 -0.0702882 0.0651642 0.980428 
2 -0.1423 0.384011 0.00934488 
1 -0.419748 -0.130765 0.280624 
1 0.466143 -0.121688 -0.285923 
2 -1.36632 -1.86408 -0.0562492 
1 0.7904 1.58613 0.745018 
1 0.648316 0.13149 -0.55834 
2 -0.752179 1.1853 -1.87286 
1 1.29225 -1.22634 1.61199 
1 -0.424315 0.476703 0.317797 
2 -0.231297 -0.687875 1.18977 
1 -0.388472 0.670235 0.0886448 
1 0.234072 0.284509 -0.809132 
2 -1.71874 0.05877 0.823416 
1 0.201877 0.165883 -0.299375 
1 0.982555 -0.419978 -0.405041 
2 0.660868 -0.335032 0.482383 
1 -0.441383 0.241509 -1.36105 
1 -0.246075 0.345275 0.538873 
2 -0.132527 -0.644169 0.797823 
1 -0.245468 0.495135 -0.119611 
1 0.191421 0.0502329 -0.430085 
2 -1.21872 -0.831789 0.0367313 
1 1.0538 0.673392 -0.0624021 
1 0.151472 0.279808 0.0252506 
2 -1.1886 -1.15629 2.29228 
1 0.0246621 0.083859 -0.73267 
1 1.01524 1.27794 -1.07806 
2 -1.03585 -0.891152 1.14379 
1 0.31869 0.312481 0.0162372 
1 0.600292 0.234025 -1.02214 
2 0.210669 0.45962 -0.214194 
1 0.100738 -0.148419 0.456705 
1 0.113622 -0.378213 -0.108309 
2 -0.262819 0.24964 -0.167883 
1 0.164192 -0.120403 -0.0793545 
1 0.0682174 -0.0462643 0.179582 
2 0.782455 -2.1966 -1.95373 
1 -0.537109 0.303288 0.194753 
1 0.00520636 1.97328 1.84796 
2 0.429227 -0.640584 -0.902398 
1 0.064682 0.12194 0.881763 
1 -0.66101 0.226214 0.296291 
2 -2.39156 -0.307504 -1.70708 
1 1.36827 0.312184 0.407207 
1 0.248184 -0.321022 1.27243 
2 0.348818 0.560916 -0.100137 
1 -0.384487 0.125435 -0.682277 
1 0.177905 -0.502177 0.616791 
2 -1.63578 -2.10363 0.632773 
1 0.0932368 0.665513 -0.165025 
1 1.12099 1.1023 -0.763026 
2 -1.53706 -1.51207 -0.302723 
1 1.33732 1.27782 0.101642 
1 0.151564 -0.0964607 -0.181568 
2 0.086836 -0.458021 1.12713 
1 0.135575 0.392689 -0.255588 
1 -0.387197 0.0107651 -0.998562 
2 -0.0779417 -0.199352 0.348123 
1 -0.149981 0.925032 -0.586618 
1 -0.00532779 -0.651972 -0.319786 
2 -1.17717 0.671103 0.00222975 
1 0.394855 0.441567 -0.135949 
1 0.940615 -1.1862 -0.0448831 
2 -0.675504 0.516041 -0.495251 
1 0.954564 -0.420088 0.453048 
1 -0.00163537 -0.163153 -0.162449 
2 1.0759 -0.249272 0.476271 
1 -0.293635 -0.319502 -0.0456304 
1 -0.575174 0.630404 -0.195259 
2 1.19419 -1.40319 -0.0666031 
1 0.193181 -0.183214 -0.0597456 
1 -1.04339 1.19325 -0.22793 
2 -1.56134 0.713547 -0.324529 
1 0.51968 -1.04166 -0.282129 
1 0.960468 -0.00445852 0.295383 
2 0.742125 -0.404258 -0.432433 
1 -0.139599 0.0468388 -0.153687 
1 -0.505657 0.241054 0.383185 
2 -0.689467 0.791212 1.88326 
1 0.0973466 -0.287165 -0.465856 
1 0.348831 -0.814615 -1.23763 
2 -0.0813457 -2.84151 -0.523859 
1 1.1513 0.733088 -0.0238016 
1 -0.881352 1.3501 0.223113 
2 0.583153 1.00841 1.24599 
1 -0.565496 -0.668768 -1.63464 
1 -0.00031722 -0.662583 0.274147 
2 0.0810788 -0.0228854 -0.0248053 
1 -0.344733 0.234248 0.549545 
1 0.241151 -0.257401 -0.331539 
2 -0.14075 -0.365648 0.593182 
1 0.665468 0.186921 -0.234165 
1 -0.631951 0.481273 -0.422831 
2 1.12124 -0.324032 0.0413631 
1 -1.61023 1.50494 -0.713273 
1 0.892703 -0.637328 0.581572 
2 1.19642 -1.49492 0.936283 
1 -0.973444 1.04092 0.229288 
1 -0.354004 0.52953 -0.871947 
2 0.292579 1.11656 0.498304 
1 -0.466773 -1.05982 -0.428032 
1 0.266242 -0.0262696 -0.326338 
2 1.13293 -0.245757 -1.00905 
1 -0.650588 -0.0604324 0.548159 
1 -0.430609 0.634422 0.324481 
2 0.915051 0.00298038 0.424131 
1 -0.383737 0.557629 -0.0438712 
1 -0.168732 -0.0510835 -0.621239 
2 0.518859 -2.23519 -0.408966 
1 1.11241 0.0343961 0.125567 
1 -1.39791 2.19205 0.238422 
2 -0.292857 0.210438 1.06875 
1 0.365163 0.489072 -0.211878 
1 -0.495592 -0.700482 -0.7929 
2 -0.678121 -0.0289783 -0.110919 
1 0.655937 0.0408441 0.329411 
1 0.21296 -0.0347684 -0.160297 
2 -0.935818 -0.670085 -2.16068 
1 -0.00578331 -0.00440982 0.252077 
1 0.641087 0.66299 2.00494 
2 -0.496055 -1.1213 -0.637069 
1 0.657745 0.820936 -0.443904 
1 -0.586951 0.240086 1.07551 
2 0.696931 0.892577 1.16991 
1 -1.16447 -1.31853 -0.304877 
1 0.545587 0.32901 -0.796857 
2 1.05948 0.872061 0.345968 
1 -0.0370775 -0.921699 0.643469 
1 -0.721512 -0.0131508 -1.01705 
2 -1.17114 1.01523 0.933613 
1 0.0957751 0.0662796 -0.910412 
1 0.822047 -0.431797 -0.203329 
2 0.9884 -0.809578 1.22091 
1 -0.148161 -0.264189 0.304922 
1 -0.813773 1.02662 -1.59382 
2 0.315744 -0.172342 0.581437 
1 -0.456262 0.982689 -0.503676 
1 0.38887 -0.466983 0.0905021 
2 -0.951209 1.16469 -0.0219454 
1 -0.49438 -0.947136 -0.614168 
1 1.42882 -0.683428 0.667714 
2 0.0898235 0.91845 0.730973 
1 -0.468866 -1.21383 -0.943589 
1 0.512165 0.392849 0.285124 
2 0.913729 -0.301025 -0.988255 
1 -0.77267 0.38716 0.640515 
1 -0.0608258 -0.0781634 0.853224 
2 0.568222 0.278119 1.10636 
1 -0.0509564 -1.76003 -0.362523 
1 -0.445813 1.24266 -0.567374 