ITEM: TIMESTEP
0
ITEM: NUMBER OF ATOMS
192
ITEM: BOX BOUNDS pp pp pp
0.0000000000000000e+00 2.3470396999999998e+01
0.0000000000000000e+00 2.3470396999999998e+01
0.0000000000000000e+00 2.3470396999999998e+01
ITEM: ATOMS type fx fy fz 
2 -0.00563374 -0.00562991 0.00642371 
1 -0.015897 0.00585073 0.0156099 
1 0.0191644 0.00527258 -0.0159042 
2 0.00331048 0.0241318 -0.0326512 
1 -0.00475225 -0.00522644 0.0119046 
1 -0.000288274 -0.0176264 0.00453008 
2 0.00329075 0.00845785 0.00364125 
1 0.0077215 -0.00628981 -0.00547405 
1 -0.014151 -0.00151752 -0.00415776 
2 -0.022477 -0.0232586 0.00347268 
1 0.0133521 0.0172481 0.0103445 
1 0.010081 0.00119245 -0.0100432 
2 -0.0120118 0.0130635 -0.0194344 
1 0.00927125 -0.00890077 0.0132196 
1 0.00253195 0.000226797 0.00238826 
2 -0.00803396 0.0254491 0.010002 
1 0.00204147 -0.0244188 0.0105913 
1 -0.00409947 0.0047076 -0.00777968 
2 -0.0311483 0.00122965 0.0204694 
1 -0.00156927 0.012947 -0.00740153 
1 0.0240887 -0.0167978 -0.00860234 
2 0.00383332 -0.00151334 0.00426057 
1 -0.000758383 0.00220988 0.00033025 
1 0.00672589 -0.00399694 -0.00922835 
2 0.0285728 -0.0266163 0.0149634 
1 -0.0285792 0.0247667 -0.0137097 
1 -0.00610988 0.00325662 -0.00159816 
2 0.0122565 0.00348123 -0.00443568 
1 -0.0110817 -0.00944126 0.00584486 
1 -0.00720417 0.00580994 -0.00147247 
2 -0.0058038 -0.0156113 0.0298156 
1 -0.00535084 -0.00221509 0.00605046 
1 0.00425391 0.0173555 -0.0263699 
2 0.00104487 0.0295467 -8.21908e-05 
1 0.00210658 -0.0249501 -0.00530032 
1 -0.00367359 -0.00865222 0.00532966 
2 0.00378185 -0.00320816 -0.00816743 
1 -0.00705799 0.00348468 -0.000130749 
1 0.00275822 -0.000151308 0.00604549 
2 -0.00923705 0.00065934 0.0140269 
1 0.00301226 -0.00335291 0.00145326 
1 0.000192966 0.00571979 -0.012722 
2 0.0284737 0.0128476 0.00335458 
1 -0.0245696 -0.00737195 0.00254524 
1 0.00148368 -0.00696675 -0.0051594 
2 0.0131347 -0.01672 -0.0225389 
1 0.000461088 0.00698195 0.0124779 
1 -0.0147673 0.00626706 0.0117486 
2 0.00334459 -0.00254492 -0.0314702 
1 0.0087138 0.000801191 0.018359 
1 -0.016412 -0.00406078 0.0192183 
2 -0.00116607 0.00833978 0.0435501 
1 -0.0103684 -0.0154789 -0.00822419 
1 0.00854536 0.0173628 -0.0363581 
2 -0.0144115 0.00962227 0.0146807 
1 -0.004811 -0.011134 0.0087001 
1 0.0133484 -0.000571994 -0.0198265 
2 -0.0198581 -0.0447597 -0.0120175 
1 0.0344871 0.0260733 0.00650487 
1 -0.0180194 0.0129407 -0.00117909 
2 0.0127575 0.000733957 0.0231279 
1 -0.0127392 0.005376 -0.0246855 
1 0.000764632 -0.00691977 0.00526159 
2 -0.0157512 0.0242224 0.000915568 
1 0.00346097 -0.0118081 0.000961789 
1 0.0104636 -0.00447003 -0.00180554 
2 -0.0094826 0.00684816 0.000170897 
1 0.00276697 0.00215149 -0.00358208 
1 0.0103224 -0.012951 -3.51086e-06 
2 -0.0238239 0.00631955 0.00760794 
1 0.00992231 0.000933371 -0.000447619 
1 0.0103599 -0.00349148 -0.0129606 
2 -0.0312885 0.0145363 -0.000901557 
1 0.00679023 -0.00504844 0.000159397 
1 0.0220345 -0.00821966 0.00119676 
2 0.00661284 -0.0349132 -0.00486965 
1 0.0199781 0.0157169 -0.00474732 
1 -0.0192528 0.0174385 -0.00351725 
2 0.0058934 -0.00109485 -1.10492e-05 
1 -0.00577241 0.00300244 0.00504172 
1 0.00217407 -0.0111413 -0.00850293 
2 0.00927284 0.0074666 0.00621115 
1 -0.00169006 -0.00731959 -0.0100727 
1 -0.0049315 -0.000850395 0.00151125 
2 -0.0121437 -0.0146185 -0.0055119 
1 0.00912492 0.00684685 -0.00327506 
1 0.00210901 0.0069974 0.0132576 
2 0.059828 -0.016297 0.00288933 
1 -0.0254329 -0.0074782 -0.0030992 
1 -0.0371836 0.0164127 -0.00226975 
2 0.0153603 0.000432265 -0.000171826 
1 -0.00904505 0.00221353 -0.0098932 
1 -0.00164879 -0.00503981 0.00836085 
2 -0.00860245 -0.002641 -0.0215191 
1 -0.0037073 0.0120397 0.0368084 
1 0.0135376 -0.00766684 -0.00829741 
2 -0.00912686 -0.00134083 0.00278593 
1 -0.000606514 0.00745223 -0.00593067 
1 0.010671 -0.00208659 0.00528166 
2 0.0494761 0.0173818 -0.000631813 
1 -0.01735 -0.0109556 0.00279459 
1 -0.0235437 -0.00447547 -0.000984544 
2 0.0324749 -0.0271851 0.0197119 
1 -0.0168649 0.0149249 0.00805586 
1 -0.0152218 0.00762212 -0.0160514 
2 0.000496882 -0.00378549 0.00751101 
1 -0.00713828 0.00272825 -0.00161733 
1 0.00396151 0.00033791 -0.00596241 
2 -0.00127232 0.00448741 -0.00504111 
1 0.00279467 0.00643979 0.00116618 
1 0.00483279 -0.00600035 0.00261027 
2 0.010655 -0.0212056 0.01722 
1 -0.00569642 0.00848816 -0.00703996 
1 0.0110385 0.0159388 -0.0135486 
2 0.0317934 -0.0320031 -0.0130597 
1 -4.63814e-05 -0.00582033 0.00417087 
1 -0.0300799 0.0378738 0.0076865 
2 0.0027499 0.0189879 0.00653665 
1 -0.000890868 -0.0039699 0.00508816 
1 -0.00906865 -0.0131423 -0.00483436 
2 0.0114654 -0.00365997 -0.00499581 
1 0.00500597 0.00213431 5.05561e-05 
1 -0.0134054 0.00292341 0.00978473 
2 -0.0093506 0.00167914 -0.00702675 
1 -0.0114692 -0.00806806 -0.00398962 
1 0.0136723 0.00977256 0.0160204 
2 0.00693032 0.0425431 0.0156558 
1 -0.00827927 -0.0156006 -0.00656384 
1 -0.00670711 -0.0237409 -0.00615307 
2 0.00549708 0.00821612 0.0238385 
1 -0.0128802 -0.00414129 -0.00911014 
1 0.00532054 0.00125882 -0.010793 
2 0.0130319 0.0462584 -0.0141511 
1 0.00359737 -0.0425026 0.0289146 
1 -0.0108651 -0.00382867 -0.0128145 
2 -0.0102982 0.0115771 0.0189892 
1 0.00384639 0.00626729 -0.0190349 
1 6.94201e-05 -0.00861886 -0.00756903 
2 -0.0119374 -0.0313722 0.00565199 
1 0.0080268 0.00885831 0.0011278 
1 0.00317461 0.0223313 -0.00822753 
2 0.0187087 -0.0314036 0.0282079 
1 -0.0159465 0.00937887 -0.0194552 
1 -0.00129032 0.0225416 -0.00599052 
2 -0.0111443 -0.0193121 -0.0145093 
1 -0.000292908 0.0110575 0.00136936 
1 0.0181338 -0.0029197 0.00572936 
2 0.0387081 -0.0064515 0.0219695 
1 -0.0113642 -0.00679523 -0.0116789 
1 -0.0290736 0.0206715 -0.00767573 
2 0.0161457 0.00348638 0.0067402 
1 -0.0206462 0.00144377 -0.000321891 
1 0.00829086 -0.00658034 -0.00192843 
2 0.0231916 -0.00820548 0.0186845 
1 -0.000976204 -0.00227297 -0.00570749 
1 -0.0152265 0.0128429 -0.00540007 
2 -0.0330433 -0.0622724 -0.00868402 
1 0.0151285 0.0620426 0.00906125 
1 0.0165445 -0.0118772 -0.00351214 
2 0.00645234 0.00183222 -0.0221341 
1 -0.00779782 -0.00127955 0.032375 
1 0.0058826 -0.00177293 -0.0106697 
2 -0.00968198 0.0167285 -0.0190983 
1 0.002675 -0.0170261 0.0105648 
1 0.00953354 -3.97625e-05 0.000471618 
2 0.00650087 0.00904401 0.0141696 
1 0.016406 -0.00797294 -0.00834458 
1 -0.0203167 -0.000305936 0.00021051 
2 -0.0107203 0.00786791 0.00110319 
1 0.00126529 -0.000216059 -0.0139997 
1 0.00820604 0.00555625 0.0171899 
2 0.00412434 -0.0093587 0.0234917 
1 -0.000535852 0.00781403 -0.0201834 
1 -0.000494067 0.00405871 -0.00799981 
2 -0.0285576 -0.0200113 -0.0115372 
1 0.00517686 0.00969568 -0.00368957 
1 0.0252227 0.00752995 0.0137806 
2 0.00744888 -0.0160764 -0.0111618 
1 -0.00503221 0.0143874 -0.00371671 
1 -0.00290428 -0.00351195 0.00263375 
2 -4.80912e-06 0.00966327 0.000504255 
1 0.0108163 -7.18476e-05 0.00634517 
1 -0.00764036 -0.0185119 -0.0103769 
2 0.00371639 -0.00324693 -0.00990944 
1 0.00396242 0.00436121 0.00930528 
1 0.00142339 0.00242859 -0.00476348 
2 0.017921 0.00981492 -7.36957e-05 
1 -0.0100729 -0.00235532 -0.000365362 
1 -0.0099927 -0.0116885 0.00232309 
2 -0.0031087 -0.00561269 0.00162938 
1 -0.012758 0.000311742 -0.0070683 
1 0.0114311 0.00357209 0.00281841 
ITEM: TIMESTEP
4
ITEM: NUMBER OF ATOMS
192
ITEM: BOX BOUNDS pp pp pp
0.0000000000000000e+00 2.3470396999999998e+01
0.0000000000000000e+00 2.3470396999999998e+01
0.0000000000000000e+00 2.3470396999999998e+01
ITEM: ATOMS type fx fy fz 
2 -0.0045029 -0.0127608 -0.0054185 
1 -0.00615334 0.0146957 0.00930961 
1 0.00905423 0.00381573 0.0012396 
2 0.000330517 0.00950168 -0.0278253 
1 -0.00404663 0.00125819 0.00835249 
1 0.000543978 -0.00777762 0.00458613 
2 -0.0059577 -0.00280498 -0.00619437 
1 0.0238736 0.000462029 -0.00438634 
1 -0.0190334 0.00170649 0.0069262 
2 0.0172555 0.0225317 0.0255966 
1 -0.0142128 -0.0261878 -0.0177343 
1 -0.00015824 -0.000686845 -0.0054322 
2 0.00194687 -0.000389332 0.0171979 
1 -0.0152392 0.00971355 -0.0218323 
1 0.0139923 -0.0086639 -0.00238634 
2 0.00689616 0.0214645 -0.0193546 
1 -4.93129e-05 -0.0232138 0.0132375 
1 -0.017494 0.00770825 0.0157316 
2 -0.00833515 -0.0061371 0.00731226 
1 -0.00121459 -0.00746852 -0.00778255 
1 -0.0026126 0.0125038 0.0028509 
2 -0.0100353 0.0106251 -0.0100235 
1 0.00795974 -0.00358224 0.0229806 
1 0.0113511 -0.0061535 -0.01707 
2 0.0279739 -0.0285088 0.0142499 
1 -0.0149908 0.0220922 -0.0175306 
1 -0.0196371 0.00647035 0.00248445 
2 0.0166607 0.0114815 -0.00589979 
1 -0.0174612 -0.0205225 0.00971568 
1 -0.00165652 0.00629213 -0.000771537 
2 -0.0014934 -0.00784085 -0.00732624 
1 -0.00296544 0.00810252 0.0146749 
1 -0.00156983 -0.000578367 0.000320884 
2 0.00695987 0.0285049 -0.0241491 
1 0.00368833 -0.0224461 -0.0052311 
1 -0.0095296 -0.0104522 0.0302426 
2 0.00766132 0.0026236 -0.0045043 
1 -0.00703214 -0.000584915 -0.000268789 
1 -0.000334825 -0.00158587 0.00220397 
2 -0.014322 0.00319797 0.0211609 
1 0.0079446 -0.00671279 0.000297507 
1 0.00101391 0.00505074 -0.0195656 
2 0.00430605 0.0284533 0.028797 
1 -0.0104702 -0.00170425 -0.000951388 
1 0.011412 -0.0274743 -0.0275659 
2 -0.0197777 0.0100698 -0.00313906 
1 -0.00120568 -0.00909815 0.00131904 
1 0.0192101 -0.00339851 0.00627594 
2 0.0201879 0.0122317 0.0100898 
1 -0.0198872 -0.011947 -0.002878 
1 -0.00566384 -0.00520545 -0.000984875 
2 0.0066806 0.0143021 0.0189145 
1 -0.0110424 -0.012875 -0.0104674 
1 0.002901 0.00651499 -0.0124862 
2 0.0121976 0.0233296 -0.0224958 
1 -0.004243 -0.00389153 0.0106355 
1 -0.0125169 -0.0220922 0.013656 
2 0.0286118 -0.0370772 -0.00694388 
1 0.0023102 0.00419871 -0.000679393 
1 -0.0324565 0.026721 0.0014985 
2 -0.00979251 -0.00574687 0.000515345 
1 -0.00533886 -0.00435154 -0.00740417 
1 0.0141115 0.0090251 0.0094718 
2 -0.00264365 0.0271451 0.00376965 
1 -0.00712537 -0.0139832 -0.00174855 
1 0.0052021 -0.00668222 -0.00361574 
2 0.0228881 -0.0344354 0.0054483 
1 -0.0061731 0.00303117 -0.00432636 
1 -0.0109381 0.0283301 -0.0052347 
2 -0.0156413 -0.0050551 0.0138725 
1 0.00295113 0.011997 -0.00792799 
1 0.00981767 -0.0036373 -0.0151015 
2 -0.0401279 -0.00347454 -0.0100484 
1 0.0133958 0.0134847 0.0079604 
1 0.0249505 -0.00821635 0.00251467 
2 -0.00172082 -0.00326389 0.00307134 
1 0.013907 0.0151272 -0.0071086 
1 -0.00444548 -0.0129868 -0.007879 
2 0.0163998 -0.0406765 -0.0189176 
1 0.0029229 0.028137 0.0224958 
1 -0.0174183 0.00493514 -0.00674778 
2 0.00556502 0.00294154 -0.00200604 
1 -0.0028646 -0.00208182 -0.00610172 
1 0.000158862 -0.000573844 0.00766456 
2 -0.0100638 -0.0240949 -0.0214147 
1 0.0179762 0.0072626 -0.00937056 
1 -0.0104721 0.0176634 0.0356065 
2 0.0483964 0.0110173 0.00550458 
1 -0.0292347 -0.019443 -0.00584475 
1 -0.0208666 0.00123156 -0.00306143 
2 0.01404 -0.0183229 -0.0237888 
1 -0.00377403 0.00465685 0.026193 
1 -0.00581109 0.0119301 -0.00515373 
2 -0.00482814 -0.00243241 -0.00815985 
1 -0.00979004 0.0129056 0.0259181 
1 0.0146119 -0.00868532 -0.0143246 
2 -0.00701032 0.00542983 -0.0101553 
1 -0.0170416 0.00949875 -0.00229353 
1 0.0250555 -0.00977007 0.014595 
2 -0.00902429 0.0351198 -0.0191914 
1 0.0373023 -0.0336509 0.0214424 
1 -0.0196272 0.00197789 -0.00153759 
2 5.44376e-05 0.00618707 0.016304 
1 0.00352239 -0.0116413 -0.00448005 
1 -0.00442359 0.00191591 0.000742617 
2 -0.00185764 -0.0187902 -0.00452319 
1 -0.00240889 0.0247089 0.00028517 
1 0.00063093 -0.00841445 0.00348381 
2 0.00705729 0.00423425 -0.0152105 
1 -0.0012367 -0.00261861 0.00617902 
1 -0.00146238 0.00370378 0.00674014 
2 0.00455251 -0.00674288 0.0099697 
1 0.00339655 0.00713493 -0.00241033 
1 0.00738845 0.00633112 -0.00999271 
2 0.0248154 0.0415914 -0.00244713 
1 -0.0191802 -0.0190754 0.00634993 
1 -0.00377469 -0.0216917 -0.00533023 
2 0.00518973 -0.00245145 -0.0183023 
1 -0.0084316 -0.00339308 0.00991681 
1 -0.00320306 0.00511922 0.0131629 
2 0.01873 -0.00108966 0.0105036 
1 0.00492294 0.000387837 -0.0132063 
1 -0.0210563 0.00306911 0.00647238 
2 0.0154322 0.0110359 0.0217555 
1 -0.0102622 -0.00748559 0.00176509 
1 -0.0104171 -0.0024424 -0.0147625 
2 -0.00900105 0.0125832 0.00828072 
1 -0.000809149 -0.00451165 -0.00540143 
1 0.00140469 -0.00523651 -0.000948142 
2 -0.00896853 -0.00911648 -0.0152488 
1 0.0196432 0.0209743 0.0103128 
1 -0.0110513 -0.00886857 0.00705669 
2 -0.00727556 0.0154473 -0.0184895 
1 -0.00181343 -0.0165864 0.00941307 
1 0.0158344 9.88829e-05 0.0121157 
2 0.00698238 0.0119556 -0.00226956 
1 -0.000637153 -0.00480474 -0.00799406 
1 -0.0130212 0.00217044 0.00165023 
2 -0.00815979 0.00718998 -0.0135715 
1 0.00936463 0.00236406 0.00630462 
1 -0.00203342 -0.0104397 0.00925984 
2 -0.00917957 -0.0328075 0.00475576 
1 0.00477636 0.00420121 -0.00188962 
1 0.00440751 0.0296191 -0.0014643 
2 0.00964094 -0.0350488 -0.00183954 
1 0.0048126 0.0176062 0.00652071 
1 -0.00604121 0.00619241 -0.0064273 
2 0.0187859 -0.0320063 -0.00301873 
1 0.00918576 0.0101968 0.0111211 
1 -0.0305321 0.0282096 -0.00656829 
2 0.0045495 0.00690495 0.0179985 
1 0.0025289 -0.000961343 -0.00268202 
1 -0.00268025 -0.00876286 -0.00817182 
2 -0.0105276 -0.0328075 -0.00861938 
1 0.0146062 0.0369759 0.00749487 
1 0.00317079 -0.00367922 0.00945563 
2 0.00759239 -0.0133698 -0.0147853 
1 0.00935999 -0.0147869 -0.00286148 
1 -0.0177024 0.0180561 0.0159468 
2 0.012297 -0.00169421 -0.00872735 
1 -0.00774168 -0.00296764 0.027853 
1 0.000717391 0.00333658 -0.0176369 
2 0.0214029 0.0158336 -0.00237159 
1 0.00289328 -0.00713465 0.00117123 
1 -0.0213609 -0.00743468 -0.0070437 
2 0.0233357 -0.000188323 0.0115433 
1 0.00703299 0.00100427 -0.000147509 
1 -0.0292862 -0.00174233 -0.0036987 
2 -0.017569 0.015729 0.0396367 
1 0.0187376 -0.00130215 -0.0363515 
1 -0.0075306 -0.00167428 0.000994434 
2 -0.0259888 0.00915533 -0.0220513 
1 0.0255823 -0.0105911 0.0220541 
1 0.00324844 0.00400732 -0.00411015 
2 -0.0334433 -0.0335991 -0.00394176 
1 0.00517433 0.0181395 -0.00942342 
1 0.032947 0.0117365 0.0157841 
2 0.0155666 -0.0206617 -0.0202107 
1 -0.00949782 0.0173832 -0.00161755 
1 -0.00556538 -0.00215818 0.00891279 
2 -0.010874 0.0133115 -0.000301298 
1 0.0177411 -0.0172315 0.0029999 
1 -0.00514942 -0.00230806 -0.00784757 
2 -0.00577297 0.0167976 -0.00430006 
1 0.00584936 -0.00899557 0.00074869 
1 0.00724649 -0.00508979 0.0010747 
2 -0.0239998 0.000527364 0.00471326 
1 0.0184407 -0.00928883 0.00196199 
1 0.00187651 0.00477658 -0.00316131 
2 -0.00522984 -0.0145185 0.000592349 
1 -0.0146683 0.00423437 -0.00913543 
1 0.0148961 0.00898941 0.0034765 
ITEM: TIMESTEP
8
ITEM: NUMBER OF ATOMS
192
ITEM: BOX BOUNDS pp pp pp
0.0000000000000000e+00 2.3470396999999998e+01
0.0000000000000000e+00 2.3470396999999998e+01
0.0000000000000000e+00 2.3470396999999998e+01
ITEM: ATOMS type fx fy fz 
2 0.00520844 -0.0110317 -0.0179177 
1 -0.000837724 0.0148751 0.00188883 
1 -0.00621827 0.00179671 0.0205765 
2 -0.000930634 -0.00731639 0.00039785 
1 -0.00424387 0.000862912 -0.00583935 
1 0.00195903 0.010251 -0.00643613 
2 -0.00154054 -0.000793588 -0.00775491 
1 0.0130268 0.000359906 -0.000832444 
1 -0.0128863 -0.000373856 0.00437494 
2 0.0326459 0.0268587 0.0193853 
1 -0.0126187 -0.0267649 -0.0190126 
1 -0.0169453 -0.00351519 0.00110448 
2 0.0106659 -0.0077941 0.0217178 
1 -0.0189309 0.0136233 -0.0281266 
1 0.0100273 -0.00465358 -0.00139243 
2 0.00840623 -0.0184344 -0.0104164 
1 -0.00378323 0.0168672 0.00209713 
1 -0.0158377 0.00703849 0.0168699 
2 0.00110992 -0.00771824 0.00145495 
1 0.000751041 -0.0186983 -0.00735156 
1 -0.0158943 0.0252279 0.00658882 
2 -0.000866665 0.00547792 -0.012157 
1 0.0049658 -0.00102625 0.0115583 
1 0.00165093 0.0011635 -0.00391654 
2 -0.0195156 -0.00104917 0.0105267 
1 0.0239517 -0.0106769 -0.00193858 
1 -0.0108067 0.0125271 -0.0101777 
2 -0.0043584 -0.000553875 -0.00209881 
1 -0.00336108 -0.00843053 0.00491452 
1 0.00562358 0.00700306 0.00218291 
2 0.00913941 0.0131647 -0.0330216 
1 -0.000160641 0.00902807 0.00141207 
1 -0.0129862 -0.0220916 0.0370112 
2 -0.00512031 -0.00886174 -0.010806 
1 0.00666249 0.0113671 0.0109636 
1 -0.000568919 -0.00807428 0.00228235 
2 0.00909199 0.00548308 -0.00100098 
1 -0.0035736 -0.00295001 0.0025267 
1 -0.00233133 -0.00403552 -0.00238946 
2 -0.0076324 0.00506904 -0.00393951 
1 -0.000143673 -0.00326361 0.00508057 
1 0.00356007 -0.000784974 -0.000686582 
2 -0.0273221 0.0119619 0.0261285 
1 0.0211424 0.00219246 -0.00856849 
1 0.0109753 -0.0146244 -0.0174602 
2 -0.0244474 0.0183183 0.00879624 
1 -0.00317711 -0.0138259 -0.00418706 
1 0.0256358 -0.00525169 -0.000167752 
2 0.00974131 0.0122403 0.0451439 
1 -0.0235372 -0.012636 -0.015754 
1 0.0072404 -0.00429218 -0.0250995 
2 0.00478532 0.0163451 -0.0270621 
1 -0.00187769 0.00315628 7.19689e-05 
1 -0.00369224 -0.0121524 0.0202405 
2 0.0129415 0.0164295 -0.0278894 
1 -0.000889373 0.00186056 0.00296495 
1 -0.0181287 -0.0214179 0.023978 
2 0.0376986 0.0184228 0.00374673 
1 -0.0439803 -0.0318807 -0.0082228 
1 0.00755904 0.00703845 -2.21678e-05 
2 -0.017684 0.0100398 -0.0115255 
1 0.0078774 -0.0178423 0.0156195 
1 0.00569235 0.00770688 -0.00341821 
2 0.00270634 -0.000594934 0.00816459 
1 -0.00250103 0.00318192 -0.00519875 
1 -0.00629567 0.00154243 -0.00795258 
2 0.018846 -0.0319488 0.00655627 
1 -0.00810512 0.00515828 -0.00494401 
1 -0.00570761 0.0240499 -0.00421804 
2 0.00162474 -0.0141387 0.00294803 
1 0.00078011 0.0159293 -0.00911582 
1 -0.00450968 -0.000811954 -0.0024753 
2 -0.00134172 -0.000297245 0.00116009 
1 0.00740541 0.00664619 0.00461904 
1 -0.00587986 -0.00422807 -0.0042033 
2 0.00588239 0.039164 0.0124199 
1 -0.00806882 -0.00490445 -0.0137859 
1 0.00989567 -0.0344882 -0.00872851 
2 0.00581281 -0.0157039 -0.00859578 
1 0.00804934 -0.0031077 0.00575536 
1 -0.01349 0.00983416 -0.000920786 
2 -0.000978787 -0.00498711 -0.0167936 
1 -0.000632281 0.00525668 0.00484397 
1 0.00351362 -0.000632368 0.0110509 
2 0.0032589 -0.00444396 -0.00130016 
1 -0.00298074 -0.00268092 -0.00710746 
1 -0.00311509 0.00634911 0.0114243 
2 -0.0141497 0.0305104 0.00447885 
1 -0.00947484 -0.00418241 -0.0025675 
1 0.0233391 -0.0357571 -0.00683311 
2 0.0112641 -0.0157357 -0.0175854 
1 -0.00364647 0.00208996 0.0251509 
1 -0.00531204 0.0124217 -0.00935557 
2 0.0183312 0.00144346 0.0331588 
1 -0.0068649 0.00055501 -0.0221995 
1 -0.0116585 -0.0013141 -0.00672633 
2 0.000877961 -0.00443688 0.00542354 
1 -0.0104007 0.00969699 -0.00240018 
1 0.00996275 0.000198976 -0.000889097 
2 -0.00496731 0.0116891 -0.00640767 
1 0.0170491 -0.0127628 0.00928087 
1 -0.00348145 0.00643096 -0.00166163 
2 -0.0247351 0.0256896 0.000944938 
1 0.0120112 -0.0198537 -0.0127039 
1 0.0112466 -0.00911984 0.0225398 
2 -0.000798924 -0.0132822 -0.00528355 
1 -0.0017806 0.0197347 -0.00262692 
1 0.000521346 -0.00999717 0.00621388 
2 0.0148471 0.002322 -0.0236754 
1 -0.00563341 -0.00727637 0.0108825 
1 -0.0070014 0.010764 0.0100602 
2 0.00440311 0.020251 -0.0124559 
1 0.0137911 0.00387959 0.00407005 
1 -0.00318623 -0.0149391 0.00429081 
2 -0.000482574 0.0453888 0.000255839 
1 -0.00109108 -0.00499822 0.00565301 
1 0.00338718 -0.038673 -0.00910865 
2 0.00465573 -0.0128254 -0.0204395 
1 -0.0083852 0.000564054 0.00632992 
1 -0.00105232 0.0103038 0.0172231 
2 -0.0133017 0.00458862 0.0145493 
1 0.00748943 -0.000245763 -0.0125674 
1 0.00644508 -0.00216247 0.000449026 
2 0.0092971 0.00511 0.0325052 
1 0.00941977 0.00477689 -0.000183704 
1 -0.0235854 -0.0108117 -0.0239984 
2 -0.0212639 -0.0218595 -0.00267161 
1 0.00196465 0.00958094 0.00287469 
1 0.0111794 0.0145053 0.0012091 
2 -0.00131093 -0.0064446 -0.0181036 
1 0.014884 0.0175746 0.00835973 
1 -0.011374 -0.00933469 0.0114144 
2 -0.0040409 -0.0273296 0.0158399 
1 -0.00388624 0.0280829 -0.0257877 
1 0.0159556 -0.00161871 0.013785 
2 0.0189231 0.020605 -0.018565 
1 -0.00937843 -0.0172287 0.00666456 
1 -0.0153474 0.0062311 0.00435561 
2 0.0111013 0.0254491 -0.0142765 
1 -0.00400018 -0.00420432 0.0022452 
1 -0.00675101 -0.0232778 0.0147488 
2 -0.0313839 -0.00413158 -0.013317 
1 0.0235151 0.00313533 0.0144431 
1 0.00883628 0.00362299 0.000716127 
2 0.0250597 -0.0275218 0.0114712 
1 0.00181343 0.0066541 0.00167194 
1 -0.0161671 0.00863506 -0.0128176 
2 -0.011733 -0.00523168 -0.00858867 
1 0.0168398 0.0121657 0.0185248 
1 -0.00726864 -0.00279692 -0.00758347 
2 -0.0087261 0.00980761 0.0154777 
1 0.019885 -0.00469209 -0.00327963 
1 -0.00749141 -0.00808952 -0.00420903 
2 -0.0184186 -0.00198983 -0.0154188 
1 0.0091923 0.0153759 0.00278587 
1 0.0148931 -0.013705 0.020393 
2 0.00890078 0.0179979 -0.0100875 
1 0.00884574 -0.0498431 -0.011716 
1 -0.0200832 0.0230074 0.0180239 
2 -0.00106373 0.00610002 0.0167041 
1 0.00724781 -0.00645177 -0.00896384 
1 -0.000651426 0.00103112 -0.00279215 
2 0.0115702 -0.00273046 0.0138245 
1 2.60074e-05 0.00873481 -0.0128992 
1 -0.00842676 -0.00176341 -0.00899881 
2 -0.00839291 -0.0138616 0.00199815 
1 -0.00659072 0.0120433 0.0110442 
1 0.0151338 -0.000700025 -0.00106428 
2 0.00856957 0.0197265 0.0281533 
1 0.000346777 -0.0069261 -0.0131556 
1 -0.0141347 -0.00230122 -0.0107008 
2 -0.00927744 0.0155442 -0.0347902 
1 0.0159693 -0.0122535 0.0253896 
1 -0.00337412 -0.00107579 0.00656923 
2 0.0111921 -0.014337 0.0197674 
1 -0.00177599 0.00971645 -0.00504547 
1 -0.0035301 0.00214473 -0.013065 
2 0.0061924 -0.00457718 -0.0144687 
1 -0.00131074 0.0037375 0.00125434 
1 -0.00317566 -0.00317193 0.00402676 
2 -0.0105684 -0.0126032 -0.00224544 
1 0.00798996 -0.0146232 -0.000748712 
1 0.00259734 0.0214208 -0.00248803 
2 -0.00894152 0.0235862 0.00312767 
1 0.0073389 -0.0155563 -0.00370821 
1 0.00858421 -0.00669705 -0.00051055 
2 -0.0308537 -0.0113303 0.00793424 
1 0.0148244 -0.00586007 0.00249323 
1 0.0105762 0.0144918 -0.00369537 
2 -0.0146653 -0.00464652 -0.00647856 
1 0.00327213 -0.00102474 0.00478954 
1 0.00771283 0.00596214 -0.00224923 
ITEM: TIMESTEP
12
ITEM: NUMBER OF ATOMS
192
ITEM: BOX BOUNDS pp pp pp
0.0000000000000000e+00 2.3470396999999998e+01
0.0000000000000000e+00 2.3470396999999998e+01
0.0000000000000000e+00 2.3470396999999998e+01
ITEM: ATOMS type fx fy fz 
2 0.00778965 0.0111972 -0.00135195 
1 -0.00388623 0.00168384 -0.00255297 
1 -0.00630575 -0.0072285 0.00757547 
2 -0.000343456 -0.0131156 0.0106947 
1 -0.00400696 0.00263846 -0.0148938 
1 0.00257231 0.0154866 -0.00393046 
2 0.0105499 0.0103579 0.00155559 
1 -0.0151952 -0.00677183 0.00233035 
1 0.00279245 -0.00400997 -0.00796456 
2 -0.0014333 -0.0201672 -0.00404909 
1 0.0140592 0.0196174 0.00704212 
1 -0.0114757 -0.00290413 -0.0025968 
2 0.00791785 -0.00294693 -0.00706179 
1 -0.000124508 -0.00112863 -0.00275417 
1 -0.00663584 0.00793398 0.00555326 
2 -0.000336043 -0.0312563 0.0165707 
1 -0.00755404 0.0304828 -0.00200394 
1 -0.00190405 0.00496828 -0.00621846 
2 -0.0176911 -7.43538e-05 0.00820106 
1 0.00357489 -0.0109001 -0.00619246 
1 0.00220801 0.00940524 -0.00146698 
2 0.0153201 -0.00622792 -0.00093779 
1 -0.00518746 0.00472417 -0.0173072 
1 -0.00773787 0.00727035 0.0116619 
2 -0.0482888 0.0185333 0.00880641 
1 0.0403696 -0.0295521 0.0096445 
1 0.00275961 0.012673 -0.0199766 
2 -0.028076 -0.0269733 0.00544187 
1 0.0167885 0.0158544 -0.00398776 
1 0.00841062 0.00907172 0.0021742 
2 -0.00482858 -0.002198 0.00695898 
1 0.00214343 0.00261278 -0.0174755 
1 0.000700375 0.000693137 0.0154629 
2 -0.0184029 -0.0270791 0.0131896 
1 0.00706797 0.0206907 0.0118024 
1 0.00978358 -0.00194223 -0.0232021 
2 0.00744941 0.00527394 -0.000617845 
1 0.000624373 -0.00292403 0.00639191 
1 -0.00173647 -0.00648124 -0.00475385 
2 -0.00164872 0.00515387 -0.0321475 
1 -0.00720751 0.00156999 0.00815858 
1 0.00499941 -0.00609852 0.0242671 
2 -0.00982447 -0.0260786 -0.0154126 
1 0.0117092 0.00331197 -0.00433469 
1 0.00301896 0.0229764 0.0193716 
2 -0.00315341 0.000205746 -0.00515146 
1 -0.00160768 -0.00092267 0.00923473 
1 0.00310785 0.000181723 0.000584343 
2 -0.0116795 0.00330701 0.0146051 
1 -0.00451466 -0.00487532 -0.010558 
1 0.00728352 -0.00436661 -0.00260669 
2 -0.00517141 0.00493123 -0.0526075 
1 0.00916332 0.0195638 0.0160279 
1 -0.00330212 -0.0198129 0.0315756 
2 -0.0201082 -0.0225258 0.00217219 
1 0.00177267 0.00931763 -0.00384158 
1 0.0105095 0.0107697 -0.00200655 
2 -0.0272101 0.0152766 0.00323036 
1 -0.0156035 -0.0042236 -0.00109478 
1 0.0448414 -0.016664 -0.00647791 
2 -0.00570836 0.0130167 0.00664451 
1 0.00865619 -0.0106947 0.0116672 
1 -0.00816294 -0.0004014 -0.0186067 
2 0.00414519 -0.0230702 0.0117558 
1 0.00174559 0.0226454 -0.0091978 
1 -0.0125687 0.00351205 -0.0107951 
2 -0.0139071 0.00532062 0.00519298 
1 0.000604152 0.00822006 -0.0046033 
1 0.0166614 -0.0156018 -0.00118259 
2 0.0113827 -0.0115549 -0.016009 
1 0.00585218 0.00851163 -0.00201774 
1 -0.0178046 0.00152701 0.0126079 
2 0.0304575 0.0113026 0.0120946 
1 -0.00324582 -0.0132545 -0.00176215 
1 -0.0251037 0.00487415 -0.00885197 
2 0.0287148 0.0209707 0.00770486 
1 -0.0181987 -0.0195213 -0.0105338 
1 -0.00603296 -0.00355441 -0.00457251 
2 -0.0253864 0.0189999 0.00115086 
1 0.0129791 -0.0312042 -0.00923343 
1 0.0104145 0.00272101 0.00349335 
2 0.00166096 -0.00887517 -0.0216608 
1 0.00171319 0.00754519 0.00897015 
1 -0.000302203 0.00203324 0.0101627 
2 0.00419593 0.0248451 0.0399326 
1 -0.0220448 -0.0090181 -0.00295119 
1 0.0141615 -0.0173184 -0.0346565 
2 -0.0381999 -0.020992 -0.00521188 
1 0.0211803 0.0279431 0.00463872 
1 0.0180733 -0.0191753 -0.00441344 
2 0.0105564 0.00888397 0.0099075 
1 -0.00780183 -0.00549607 -0.0106118 
1 -0.00229905 -0.00506085 -0.000290553 
2 0.0280409 0.00430887 0.049352 
1 -0.00193834 -0.00744137 -0.044178 
1 -0.0261362 0.00256508 0.000292524 
2 0.00668463 -0.0196004 0.0297198 
1 0.00937406 0.00633965 -0.00598244 
1 -0.016513 0.0167164 -0.0222149 
2 0.0243881 -0.018826 0.0108928 
1 -0.0265063 0.0235798 -0.0118164 
1 0.0117014 0.000775044 0.00253437 
2 -0.0153616 0.0118751 0.0082432 
1 0.00796821 -0.0107642 -0.0118514 
1 0.0067609 -0.00427844 0.0119079 
2 0.00271189 0.00612163 0.00549129 
1 -0.00605549 -0.00477535 -0.00662318 
1 0.00377278 -0.00339591 -0.00257931 
2 0.0173866 0.000156228 -0.023333 
1 -0.00857892 -0.00757707 0.0116767 
1 -0.00872079 0.0137721 0.00924409 
2 0.0104648 0.0252869 -0.0188499 
1 0.0111808 0.00446834 0.00499839 
1 -0.00764781 -0.0195928 0.00643619 
2 -0.0113013 -0.00121127 -0.00491521 
1 0.0219066 0.00830937 0.00405098 
1 -0.00706433 -0.00644804 -0.00162766 
2 0.00201146 0.0004586 0.00840326 
1 0.0011557 0.00496991 -0.00258675 
1 -0.00809493 -0.00610985 -0.00383879 
2 -0.0327805 0.00530699 0.0046467 
1 0.0112707 0.00115102 -0.000693666 
1 0.0203524 -0.00482019 -0.00176898 
2 -0.000871629 0.00124999 0.0206416 
1 0.0144699 0.00815985 -0.000516469 
1 -0.02033 -0.0116112 -0.0147314 
2 -0.0152624 -0.0292161 -0.0123236 
1 0.00464633 0.0170603 0.00401969 
1 0.00370727 0.0141646 0.0104299 
2 0.0147794 0.015176 0.0127871 
1 -0.0145344 -0.0127143 -0.00489018 
1 0.00268909 0.000125173 -0.00423055 
2 0.013059 -0.0268104 0.0369018 
1 -0.000596804 0.0301442 -0.0277214 
1 -0.00433321 -0.00372803 -0.00578038 
2 0.00702729 0.0303661 -0.0121935 
1 -0.0107316 -0.0168708 0.00689698 
1 -0.000982053 -0.00221734 -0.000838567 
2 0.03341 0.00354478 0.0144747 
1 -0.0165571 -0.00814463 -0.000820192 
1 -0.0161679 0.000894637 -0.0123305 
2 -0.0238541 0.0275544 -0.00620388 
1 0.0193671 0.00919897 0.0132369 
1 0.00845275 -0.0335101 -0.00320888 
2 0.0267031 -0.000700388 0.0194876 
1 -0.00601629 -0.0127618 -0.00958877 
1 -0.0121995 0.00352275 -0.00950832 
2 -0.0136015 0.0462643 0.0171375 
1 -0.00102136 -0.0085197 -0.00449689 
1 0.0139897 -0.0344906 -0.0103304 
2 0.00703862 0.00283182 -0.00656917 
1 -0.00203463 0.000565187 0.00498641 
1 -0.00183522 -0.0059224 0.0109936 
2 0.00367301 0.0153506 0.00756897 
1 -0.00132234 -0.0220137 -0.00704677 
1 0.000903141 0.00569812 0.00491506 
2 -0.0237484 0.0319542 0.00717918 
1 0.00671592 -0.0400507 -0.0125106 
1 0.013956 0.000874216 -0.00091901 
2 -0.00504247 0.008783 0.0263693 
1 0.0148875 -0.00423892 -0.0350277 
1 -0.00228399 -0.00226057 0.0151494 
2 -0.0211505 -0.0123146 0.0143804 
1 0.00180248 0.0145405 -0.0159927 
1 0.0223266 0.00513059 -0.0079796 
2 -0.026874 -0.00627657 0.00735214 
1 -0.00509691 0.00451362 0.00748818 
1 0.0309033 2.34815e-05 -0.00370032 
2 0.023445 0.0177938 -0.00430692 
1 -0.0176945 -0.0129939 0.0190789 
1 -0.00895152 0.00243584 -0.0104439 
2 0.0288814 0.00447783 -0.00687419 
1 -0.0178842 0.00275614 -0.0123647 
1 -0.00870616 -0.00453039 0.017934 
2 0.0435265 0.0167783 0.0161115 
1 -0.0129465 -0.0168266 0.00897607 
1 -0.0232861 -0.00283431 -0.0254783 
2 -0.0112521 0.0160151 -0.00198984 
1 0.0116098 -0.0127853 0.00300025 
1 0.00155182 -0.00518797 -0.00694028 
2 0.0128953 -0.0322918 0.00073337 
1 -0.0123489 0.00403111 -0.00213189 
1 -0.00181478 0.0217346 -0.00317427 
2 -0.00211689 0.0103621 0.000888532 
1 0.00676354 -0.00774207 0.00715585 
1 0.00371905 -0.00236265 -0.00995861 
2 -0.00308946 -0.0172822 0.00697964 
1 -0.0112684 0.00659154 0.00404876 
1 0.0090513 0.00890698 0.000775502 
2 -0.00703003 0.010611 -0.0020311 
1 0.0135331 -0.0012244 0.0141484 
1 -0.00857257 -0.00743526 -0.0136154 
ITEM: TIMESTEP
16
ITEM: NUMBER OF ATOMS
192
ITEM: BOX BOUNDS pp pp pp
0.0000000000000000e+00 2.3470396999999998e+01
0.0000000000000000e+00 2.3470396999999998e+01
0.0000000000000000e+00 2.3470396999999998e+01
ITEM: ATOMS type fx fy fz 
2 0.00508189 0.0391805 0.0237226 
1 -0.0071686 -0.0153765 -0.00497916 
1 0.00153808 -0.0193548 -0.0161253 
2 0.00112376 -0.0105451 -0.0121392 
1 -0.00180423 0.0104029 -0.00916818 
1 0.000566582 0.00602797 0.0151091 
2 0.00431211 0.00797774 -7.30304e-05 
1 -0.0188456 -0.0057491 0.00766974 
1 0.0131587 -0.00299675 -0.00891382 
2 -0.0252749 -0.0361773 -0.00492588 
1 0.0142335 0.0316927 0.0140001 
1 0.0101792 0.00220278 -0.0101359 
2 -0.012012 0.019588 -0.0360328 
1 0.0227102 -0.0229783 0.0300972 
1 -0.00980033 0.00993047 0.00576688 
2 -0.00644614 -0.0120632 0.028005 
1 -0.00631709 0.0137252 -0.000751875 
1 0.00639559 0.00264183 -0.0203314 
2 -0.0399888 -0.00106586 0.0163213 
1 0.00325007 0.00949589 -0.00652086 
1 0.0234392 -0.0105658 -0.00866968 
2 0.0100937 -0.00400591 0.000963879 
1 -0.0049239 0.00328084 -0.0198656 
1 -0.00455875 0.00481636 0.0115315 
2 -0.0073473 -0.0118077 0.0152396 
1 -0.00205321 0.00916668 -0.0050521 
1 0.00383776 0.00320002 -0.0108325 
2 -0.0219105 -0.0255744 0.00538231 