192
Atoms. Timestep: 0
2 6.487 9.08 9.033
1 7.145 9.781 8.837
1 6.049 9.119 9.931
2 10.999 6.842 0.646
1 11.026 7.445 1.424
1 11.013 7.531 12.337
2 11.186 0.051 8.854
1 10.246 12.208 8.894
1 11.676 12.05 8.121
2 10.626 8.804 10.722
1 10.126 8.078 10.239
1 11.422 8.946 10.198
2 2.956 9.537 5.95
1 3.466 9.149 6.67
1 2.265 10.135 6.306
2 9.024 1.598 5.74
1 8.986 0.702 6.071
1 9.495 1.581 4.891
2 11.286 12.12 0.292
1 11.475 0.62 0.07
1 11.969 11.554 12.399
2 3.609 7.031 2.164
1 3.24 7.331 1.31
1 3.018 7.493 2.84
2 7.298 4.743 9.494
1 8.021 4.094 9.878
1 6.575 4.594 10.117
2 8.907 5.277 0.812
1 9.625 5.988 0.6
1 8.009 5.532 0.475
2 8.572 11.858 2.264
1 8.484 11.373 1.414
1 8.308 11.244 3.051
2 9.533 7.407 6.256
1 9.47 6.555 5.834
1 9.291 7.333 7.197
2 5.587 5.714 3.545
1 5.982 6.428 4.084
1 5.12 6.15 2.789
2 7.034 4.862 6.705
1 7.831 4.525 6.282
1 7.113 4.61 7.673
2 12.229 1.215 4.752
1 0.769 1.347 4.482
1 12.099 1.913 5.438
2 5.003 7.846 11.028
1 4.902 7.068 10.407
1 4.088 8.094 11.165
2 2.416 1.559 7.244
1 3.259 1.891 7.631
1 2.737 1.494 6.287
2 1.171 10.575 12.244
1 1.546 11.24 0.49
1 1.375 10.985 11.415
2 4.74 11.139 3.977
1 4.806 10.733 3.088
1 4.158 10.63 4.617
2 3.081 10.054 9.427
1 2.309 9.398 9.212
1 3.897 9.488 9.387
2 0.983 11.596 6.683
1 0.774 12.175 5.954
1 1.61 12.224 7.128
2 6.421 5.854 0.429
1 5.729 5.166 0.371
1 5.894 6.667 0.23
2 1.291 0.27 1.993
1 2.24 0.522 1.896
1 0.799 1.116 1.868
2 0.207 3.088 7.069
1 0.821 2.416 7.436
1 11.887 3.24 7.727
2 7.876 7.884 2.257
1 7.603 7.051 1.872
1 8.813 7.94 2.471
2 8.92 10.904 12.07
1 9.598 11.501 12.43
1 9.491 10.072 11.951
2 8.465 3.163 11.465
1 8.601 3.993 11.974
1 9.355 2.777 11.619
2 7.347 10.553 4.701
1 7.633 11.039 5.534
1 6.477 10.953 4.484
2 0.055 6.359 7.671
1 11.601 5.931 7.815
1 0.362 5.994 6.793
2 6.173 1.829 2.698
1 6.815 2.616 2.846
1 6.925 1.124 2.655
2 9.9 3.189 8.256
1 9.785 2.995 7.313
1 10.109 2.307 8.596
2 3.936 5.368 9.781
1 3.959 5.132 8.77
1 2.995 5.619 9.983
2 11.31 10.716 3.23
1 12.233 10.731 2.934
1 10.761 11.156 2.542
2 6.472 7.874 5.212
1 7.348 7.5 5.515
1 6.894 8.746 4.901
2 8.044 11.571 9.443
1 7.519 12.315 9.723
1 8.525 11.282 10.299
2 10.726 9.825 6.488
1 10.561 8.889 6.214
1 11.06 10.299 5.714
2 2.815 0.941 4.582
1 3.245 0.143 4.194
1 3.068 1.719 4.018
2 10.802 3.855 1.967
1 10.012 4.252 1.559
1 10.433 3.043 2.479
2 8.688 7.115 9.045
1 7.956 6.469 9.098
1 8.309 7.936 9.249
2 11.094 2.262 11.894
1 11.743 2.483 11.161
1 11.303 2.96 0.147
2 1.191 3.811 0.902
1 1.572 3.843 1.795
1 0.25 3.93 1.061
2 2.017 8.521 3.643
1 1.262 7.999 3.92
1 2.416 8.721 4.502
2 3.579 3.458 3.584
1 3.293 3.932 4.412
1 4.251 4.177 3.355
2 6.29 1.049 10.528
1 6.976 1.574 11.019
1 5.705 0.72 11.258
2 1.115 5.801 10.806
1 1.215 5.049 11.338
1 0.414 5.635 10.184
2 7.754 3.99 3.181
1 8.126 4.445 2.419
1 7.059 4.643 3.514
2 5.104 3.598 12.232
1 4.286 3.442 11.707
1 5.157 2.748 0.346
2 0.308 8.987 8.469
1 12.044 9.337 7.912
1 0.276 7.98 8.347
2 10.03 1.645 3.238
1 9.611 0.851 2.798
1 10.857 1.311 3.623
2 4.029 0.562 1.141
1 4.621 1.049 1.804
1 4.593 12.131 1.014
2 9.679 4.586 5.108
1 10.612 4.486 4.821
1 9.072 4.458 4.342
2 10.475 8.107 2.914
1 10.808 9.004 3.186
1 11.085 7.437 3.364
2 4.062 5.394 7.014
1 4.293 6.289 7.086
1 4.847 4.984 6.651
2 4.814 2.284 8.136
1 5.329 1.993 7.294
1 5.141 1.838 8.944
2 4.522 10.631 12.236
1 4.974 10.071 0.453
1 3.607 10.308 12.12
2 1.32 12.1 9.853
1 1.784 11.446 9.337
1 0.397 12 9.646
2 4.757 7.877 7.258
1 5.45 7.916 6.559
1 5.266 8.212 8.005
2 6.074 1.135 5.889
1 5.53 1.425 5.165
1 6.99 1.459 5.783
2 1.55 5.076 5.63
1 1.136 4.274 6.068
1 2.293 5.294 6.188
2 8.674 11.586 6.921
1 9.278 10.778 6.939
1 8.361 11.732 7.846
2 2.326 8.203 12.305
1 1.684 8.965 12.258
1 1.788 7.464 12.022
2 0.866 2.506 10.407
1 0.931 1.815 9.698
1 1.298 2.066 11.159
2 5.623 9.321 1.891
1 6.577 9.039 1.97
1 5.117 8.554 2.181
2 12.15 5.919 3.54
1 0.469 5.535 4.073
1 11.674 5.205 3.022
192
Atoms. Timestep: 4
2 6.48907 9.08151 9.04292
1 7.11691 9.788 8.83984
1 6.06342 9.17089 9.91641
2 11.003 6.83663 0.638348
1 11.036 7.41239 1.4305
1 11.032 7.48169 12.3176
2 11.1811 0.0432338 8.85435
1 10.2299 12.1769 8.8476
1 11.697 12.0957 8.09001
2 10.6336 8.81043 10.7121
1 10.1729 8.11243 10.2749
1 11.4782 8.93626 10.2351
2 2.94907 9.52554 5.93995
1 3.48274 9.09546 6.70176
1 2.23649 10.1137 6.31665
2 9.02138 1.6081 5.74862
1 9.03248 0.695611 6.03943
1 9.47714 1.58982 4.85083
2 11.2911 12.1313 0.306371
1 11.4424 0.655499 0.0971133
1 12.0042 11.5381 12.4237
2 3.61676 7.02272 2.17378
1 3.21875 7.3141 1.28875
1 3.00817 7.47416 2.86019
2 7.29509 4.74882 9.49018
1 7.96445 4.07989 9.9004
1 6.59676 4.59966 10.1336
2 8.89793 5.27251 0.818092
1 9.59785 6.01742 0.58913
1 7.98605 5.50047 0.498749
2 8.56926 11.8591 2.25935
1 8.46951 11.3283 1.41741
1 8.27851 11.2796 2.9865
2 9.52903 7.41193 6.25761
1 9.46149 6.55695 5.83968
1 9.2604 7.34711 7.16889
2 5.57746 5.72263 3.54049
1 5.99154 6.45748 4.04521
1 5.08018 6.17208 2.81549
2 7.02332 4.8692 6.70433
1 7.80273 4.51085 6.26909
1 7.09909 4.63809 7.68453
2 12.228 1.21776 4.74144
1 0.754678 1.29897 4.48567
1 12.0685 1.94071 5.47414
2 5.00189 7.83669 11.0235
1 4.86693 7.12245 10.3714
1 4.05475 8.09143 11.2167
2 2.42697 1.56949 7.25481
1 3.30514 1.90259 7.68745
1 2.71672 1.54357 6.32157
2 1.16275 10.5872 12.2403
1 1.5524 11.2066 0.507257
1 1.36327 11.0482 11.3919
2 4.7515 11.1514 3.98896
1 4.84117 10.6732 3.13638
1 4.19147 10.6756 4.58439
2 3.0866 10.0629 9.4379
1 2.37147 9.41128 9.25287
1 3.9247 9.48544 9.36439
2 0.98169 11.6049 6.67685
1 0.717122 12.2166 5.9737
1 1.57147 12.1939 7.16405
2 6.41828 5.84366 0.437261
1 5.77319 5.12205 0.408342
1 5.89707 6.65438 0.253027
2 1.29121 0.26305 1.98471
1 2.25739 0.480104 1.91817
1 0.817896 1.06424 1.89046
2 0.196689 3.0981 7.06758
1 0.809139 2.38845 7.43268
1 11.9074 3.2538 7.75184
2 7.86854 7.87367 2.25416
1 7.57334 6.99884 1.92016
1 8.79611 7.9148 2.49267
2 8.9156 10.9126 12.0598
1 9.60563 11.5237 12.3968
1 9.48419 10.1311 11.9851
2 8.47634 3.16214 11.466
1 8.56295 3.97819 11.9343
1 9.39404 2.76247 11.5815
2 7.33567 10.5538 4.7021
1 7.62795 11.0185 5.53219
1 6.47361 10.9669 4.44516
2 0.0597863 6.36221 7.6749
1 11.5893 5.97808 7.84569
1 0.387781 5.95959 6.77985
2 6.16799 1.83893 2.69745
1 6.80086 2.65438 2.86079
1 6.90886 1.17599 2.64149
2 9.91173 3.20155 8.25357
1 9.81288 2.98929 7.26295
1 10.0914 2.30975 8.64256
2 3.94157 5.37405 9.78145
1 3.99977 5.12416 8.79008
1 3.00709 5.61776 10.0131
2 11.3147 10.7197 3.22369
1 12.2447 10.6836 2.89344
1 10.7275 11.1679 2.53709
2 6.4847 7.8742 5.21007
1 7.31169 7.53691 5.47288
1 6.85429 8.73968 4.86698
2 8.03918 11.5754 9.44038
1 7.46641 12.3263 9.78286
1 8.49564 11.2637 10.2614
2 10.7262 9.8292 6.48126
1 10.5297 8.85764 6.23803
1 11.0436 10.2948 5.68327
2 2.80965 0.940044 4.58887
1 3.29642 0.173368 4.21842
1 3.11741 1.6617 3.98282
2 10.8024 3.8407 1.9619
1 9.98717 4.20723 1.53246
1 10.4494 3.07255 2.51379
2 8.68617 7.11249 9.04901
1 7.95427 6.50402 9.09141
1 8.31006 8.0076 9.25287
2 11.0936 2.27641 11.893
1 11.7882 2.43648 11.1672
1 11.3214 2.93354 0.131855
2 1.20536 3.80401 0.900436
1 1.52901 3.88154 1.82859
1 0.269778 3.92297 1.03556
2 2.00407 8.51232 3.6319
1 1.24025 8.00498 3.91035
1 2.45831 8.77057 4.52647
2 3.58195 3.45635 3.5962
1 3.25324 3.88332 4.41809
1 4.23226 4.13672 3.3109
2 6.27901 1.04291 10.5382
1 6.92547 1.59031 10.9714
1 5.73369 0.743038 11.2699
2 1.11125 5.80743 10.799
1 1.16803 5.04054 11.3741
1 0.392573 5.66102 10.1351
2 7.75309 3.98285 3.18625
1 8.15861 4.4906 2.44386
1 7.07321 4.61793 3.49567
2 5.10947 3.58951 12.221
1 4.28981 3.48743 11.6882
1 5.18828 2.82028 0.353596
2 0.320644 8.98638 8.46299
1 12.0213 9.31375 7.89104
1 0.258059 7.9718 8.3106
2 10.0306 1.63941 3.23528
1 9.61218 0.829322 2.77316
1 10.8884 1.294 3.65957
2 4.03983 0.571 1.15013
1 4.61549 1.01533 1.78338
1 4.56415 12.1108 1.00138
2 9.67199 4.59216 5.10654
1 10.5791 4.4436 4.82719
1 9.09938 4.48592 4.33406
2 10.489 8.11332 2.91521
1 10.7739 8.97878 3.1723
1 11.0471 7.45205 3.36221
2 4.0647 5.38357 7.02394
1 4.25607 6.37283 7.13646
1 4.88215 4.95806 6.61013
2 4.80506 2.27689 8.14173
1 5.34397 2.03061 7.30863
1 5.18577 1.82342 8.94138
2 4.53331 10.6183 12.2455
1 4.93156 10.0407 0.499122
1 3.63078 10.3436 12.1511
2 1.31664 12.089 9.84847
1 1.7549 11.4258 9.29845
1 0.390025 11.9963 9.69442
2 4.76723 7.86526 7.25039
1 5.43394 7.95889 6.58017
1 5.31146 8.17154 8.02498
2 6.08648 1.13911 5.89899
1 5.53193 1.45445 5.10972
1 7.00276 1.42923 5.72623
2 1.53723 5.07894 5.61658
1 1.15243 4.24789 6.06397
1 2.27836 5.27241 6.17602
2 8.66249 11.5817 6.91038
1 9.30652 10.7957 6.90332
1 8.3695 11.7251 7.82812
2 2.33382 8.19446 12.2926
1 1.6887 8.99183 12.2736
1 1.82409 7.41434 12.0325
2 0.857371 2.49556 10.4135
1 0.920573 1.85876 9.68962
1 1.28511 2.08065 11.1768
2 5.6216 9.30815 1.89225
1 6.53554 9.0046 1.93143
1 5.07028 8.52063 2.12922
2 12.1626 5.92276 3.55136
1 0.44455 5.50505 4.10763
1 11.646 5.20001 3.07846
192
Atoms. Timestep: 8
2 6.49054 9.08103 9.05178
1 7.07529 9.82487 8.86215
1 6.09422 9.23097 9.90267
2 11.0076 6.83202 0.627245
1 11.0374 7.38105 1.44703
1 11.0491 7.419 12.3126
2 11.1756 0.0349507 8.8535
1 10.26 12.1469 8.79434
1 11.6854 12.1534 8.07329
2 10.6428 8.81883 10.7052
1 10.1971 8.10413 10.2792
1 11.532 8.92606 10.2634
2 2.94248 9.51434 5.93221
1 3.47154 9.06015 6.6935
1 2.23405 10.0766 6.32465
2 9.0194 1.62052 5.75545
1 9.0811 0.650319 6.03139
1 9.42963 1.61089 4.84003
2 11.2952 12.1423 0.321859
1 11.41 0.676239 0.111034
1 12.0424 11.5426 0.0188868
2 3.62362 7.0156 2.18231
1 3.21037 7.2906 1.30433
1 3.01994 7.44665 2.84999
2 7.29526 4.75097 9.48859
1 7.88672 4.1066 9.88806
1 6.58402 4.6182 10.1518
2 8.89083 5.26985 0.823447
1 9.53796 6.0099 0.592877
1 7.9618 5.47858 0.519026
2 8.56653 11.8597 2.2539
1 8.45258 11.3041 1.44349
1 8.24226 11.3102 2.92858
2 9.52563 7.4201 6.25704
1 9.45981 6.51904 5.83953
1 9.20851 7.34098 7.18987
2 5.56851 5.73145 3.53551
1 5.98663 6.48454 4.00506
1 5.0397 6.19399 2.84749
2 7.01138 4.87654 6.70581
1 7.78854 4.48541 6.25591
1 7.08951 4.67733 7.66298
2 12.228 1.22371 4.73419
1 0.716081 1.24903 4.48923
1 12.0582 1.92398 5.4643
2 4.99927 7.82824 11.0183
1 4.82557 7.16494 10.3383
1 4.04787 8.08763 11.2773
2 2.43981 1.58105 7.26672
1 3.31425 1.8938 7.74367
1 2.68769 1.58419 6.35144
2 1.15545 10.6013 12.2393
1 1.53727 11.1492 0.500151
1 1.35272 11.1208 11.3434
2 4.76418 11.1663 3.99849
1 4.86921 10.6061 3.20081
1 4.20233 10.6811 4.57831
2 3.09573 10.0671 9.44791
1 2.43018 9.43232 9.29088
1 3.89938 9.53277 9.34726
2 0.979712 11.6134 6.67068
1 0.648197 12.2489 5.98196
1 1.55122 12.1753 7.22079
2 6.41537 5.83598 0.445986
1 5.80863 5.0512 0.438184
1 5.90797 6.62907 0.263877
2 1.29456 0.2524 1.97682
1 2.26065 0.440786 1.93589
1 0.813408 1.06135 1.90012
2 0.185022 3.10732 7.0677
1 0.802142 2.38646 7.41442
1 11.9526 3.25767 7.74659
2 7.85637 7.86281 2.25034
1 7.57068 6.96611 1.98533
1 8.81951 7.87626 2.52044
2 8.9111 10.9207 12.05
1 9.63228 11.5677 12.3525
1 9.47366 10.1666 12.0056
2 8.48926 3.15686 11.4649
1 8.53103 4.00903 11.9323
1 9.40315 2.75718 11.5341
2 7.32493 10.555 4.70304
1 7.62028 10.9923 5.51768
1 6.46982 10.9759 4.41895
2 0.0630517 6.36282 7.67662
1 11.6098 6.03686 7.85991
1 0.395526 5.95404 6.82769
2 6.168 1.84991 2.69746
1 6.73761 2.65986 2.86237
1 6.86397 1.22854 2.62312
2 9.92475 3.21185 8.24847
1 9.82932 2.98807 7.25612
1 10.0654 2.33332 8.68236
2 3.94674 5.37988 9.78058
1 4.025 5.13676 8.85644
1 3.04182 5.60125 10.0235
2 11.3186 10.724 3.21632
1 12.2291 10.6535 2.84602
1 10.7347 11.1651 2.55699
2 6.49676 7.87799 5.20598
1 7.33682 7.52561 5.4675
1 6.78189 8.73863 4.83341
2 8.03416 11.5807 9.43928
1 7.42091 12.313 9.8333
1 8.45939 11.2516 10.2266
2 10.726 9.8308 6.47366
1 10.4975 8.87463 6.26222
1 11.0296 10.2788 5.66069
2 2.80532 0.939666 4.59394
1 3.34268 0.200839 4.25576
1 3.16501 1.60892 3.96088
2 10.8029 3.82593 1.95772
1 9.96742 4.1727 1.50084
1 10.4783 3.11016 2.52888
2 8.68738 7.11412 9.05302
1 7.92252 6.50458 9.09687
1 8.29943 8.04518 9.24618
2 11.0939 2.29101 11.8901
1 11.815 2.38184 11.1894
1 11.3329 2.91158 0.137452
2 1.22189 3.7966 0.900166
1 1.49175 3.91986 1.83812
1 0.257423 3.92302 1.01967
2 1.99299 8.50481 3.62405
1 1.20298 8.004 3.90355
1 2.47551 8.81488 4.51234
2 3.58367 3.45618 3.60934
1 3.20985 3.82778 4.4142
1 4.22257 4.0869 3.26145
2 6.26702 1.03558 10.5466
1 6.90844 1.64961 10.9426
1 5.7417 0.748345 11.2966
2 1.10694 5.81597 10.7902
1 1.11388 5.00347 11.4228
1 0.396402 5.68297 10.1067
2 7.75308 3.97708 3.1915
1 8.18577 4.5241 2.45463
1 7.0594 4.59645 3.47679
2 5.11446 3.58213 12.209
1 4.30993 3.53559 11.6797
1 5.20988 2.87618 0.373397
2 0.332057 8.98204 8.45748
1 12.0142 9.29933 7.86723
1 0.250446 8.01963 8.27186
2 10.0322 1.62977 3.2328
1 9.62299 0.839401 2.75538
1 10.9024 1.29005 3.67971
2 4.05289 0.575973 1.15891
1 4.62534 1.00431 1.78198
1 4.4768 12.1485 0.975796
2 9.66526 4.59917 5.10754
1 10.5466 4.39667 4.8278
1 9.12336 4.49775 4.3111
2 10.5025 8.11645 2.91579
1 10.7591 9.01603 3.17094
1 11.0113 7.45676 3.37829
2 4.0682 5.37134 7.0322
1 4.23464 6.43859 7.17766
1 4.88565 4.96678 6.59609
2 4.79794 2.26949 8.14659
1 5.3442 2.06337 7.37247
1 5.22945 1.81385 8.9094
2 4.54699 10.6075 12.2549
1 4.88918 9.99802 0.544388
1 3.62394 10.3688 12.1732
2 1.31547 12.0785 9.84516
1 1.73325 11.4064 9.25962
1 0.337263 11.9905 9.7374
2 4.77607 7.85541 7.24714
1 5.45141 7.99889 6.5398
1 5.34394 8.13238 8.0475
2 6.09611 1.14423 5.90669
1 5.57722 1.46624 5.09257
1 7.01868 1.40719 5.66384
2 1.52056 5.07789 5.60291
1 1.17906 4.25641 6.04391
1 2.32136 5.27174 6.18961
2 8.65261 11.5752 6.89768
1 9.31873 10.8495 6.86724
1 8.36865 11.7129 7.82592
2 2.3401 8.18746 12.2804
1 1.72821 8.98411 12.2935
1 1.85106 7.35939 12.0288
2 0.848096 2.48699 10.4196
1 0.918827 1.88438 9.68166
1 1.28993 2.08331 11.1977
2 5.61712 9.295 1.89399
1 6.52702 8.9584 1.89586
1 5.02671 8.49388 2.06882
2 12.175 5.9248 3.56263
1 0.39304 5.48292 4.12447
1 11.6493 5.21381 3.14299
192
Atoms. Timestep: 12
2 6.49249 9.07929 9.05856
1 7.03179 9.89099 8.88356
1 6.11263 9.29014 9.92457
2 11.0124 6.82526 0.61649
1 11.0314 7.3551 1.45726
1 11.0678 7.38818 12.2855
2 11.1708 0.0270373 8.85191
1 10.2991 12.1123 8.73984
1 11.6574 12.2154 8.06226
2 10.6555 8.82956 10.7005
1 10.2006 8.05407 10.2513
1 11.5525 8.91072 10.2943
2 2.93722 9.50264 5.92711
1 3.43046 9.04663 6.6372
1 2.24647 10.0339 6.33252
2 9.01826 1.63081 5.76186
1 9.12213 0.635401 6.03057
1 9.35889 1.6468 4.85266
2 11.2994 12.1517 0.337749
1 11.3829 0.676662 0.111995
1 12.0583 11.5891 0.0577537
2 3.63048 7.00897 2.18853
1 3.21435 7.26285 1.34968
1 3.03367 7.42572 2.83327
2 7.29292 4.75265 9.48896
1 7.8594 4.11297 9.87033
1 6.55373 4.65945 10.149
2 8.88353 5.26713 0.828621
1 9.47124 5.99216 0.601978
1 7.94178 5.4718 0.537118
2 8.565 11.8621 2.24493
1 8.44043 11.3013 1.4659
1 8.17806 11.2984 2.94203
2 9.52164 7.42761 6.25571
1 9.46965 6.49527 5.85754
1 9.15255 7.32016 7.21287
2 5.56043 5.74066 3.53027
1 5.97349 6.5073 3.97261
1 4.99427 6.21419 2.87638
2 6.99945 4.88398 6.70596
1 7.76454 4.45946 6.25731
1 7.08933 4.7154 7.64633
2 12.2252 1.23142 4.73044
1 0.709559 1.20596 4.47838
1 12.0713 1.87606 5.41854
2 4.99383 7.82167 11.0139
1 4.77776 7.18362 10.2986
1 4.08597 8.07702 11.3391
2 2.45315 1.59369 7.2832
1 3.28482 1.86426 7.78045
1 2.67294 1.618 6.33886
2 1.14816 10.6166 12.2342
1 1.52648 11.1113 0.511638
1 1.33497 11.1678 11.3327
2 4.77806 11.1827 4.00521
1 4.8961 10.5394 3.26687
1 4.18879 10.6508 4.61195
2 3.10848 10.0723 9.45818
1 2.42171 9.40962 9.315
1 3.88477 9.59419 9.33091
2 0.976143 11.6227 6.66362
1 0.588359 12.2558 6.00871
1 1.5409 12.1677 7.2764
2 6.41315 5.82725 0.455671
1 5.84381 4.98796 0.455086
1 5.90212 6.61047 0.254261
2 1.29967 0.238216 1.96926
1 2.25303 0.413268 1.9485
1 0.800192 1.09648 1.89887
2 0.175205 3.11449 7.06694
1 0.796966 2.41641 7.37949
1 11.9807 3.26272 7.75363
2 7.84371 7.85144 2.24662
1 7.58721 6.94704 2.06315
1 8.82862 7.83075 2.54145
2 8.90722 10.9328 12.0417
1 9.63892 11.6012 12.2911
1 9.4834 10.138 12.0094
2 8.50226 3.14954 11.4626
1 8.51577 4.03993 11.945
1 9.39294 2.76967 11.4876
2 7.31395 10.5556 4.70169
1 7.61549 10.9772 5.51634
1 6.4711 10.9793 4.41244
2 0.0670104 6.36318 7.67803
1 11.6158 6.08379 7.86324
1 0.3951 5.95779 6.8982
2 6.16663 1.86393 2.69784
1 6.6534 2.66061 2.85738
1 6.86086 1.21813 2.59338
2 9.93884 3.22012 8.2408
1 9.83408 2.98629 7.29853
1 10.0309 2.37693 8.7086
2 3.95417 5.38608 9.78364
1 4.03678 5.14752 8.87872
1 3.05227 5.57992 10.0234
2 11.3227 10.728 3.20909
1 12.1907 10.642 2.79462
1 10.7611 11.1623 2.57951
2 6.50813 7.88306 5.20079
1 7.3994 7.48871 5.4859
1 6.69962 8.75972 4.79678
2 8.02581 11.5893 9.43779
1 7.40189 12.2568 9.85676
1 8.44682 11.2255 10.2362
2 10.7257 9.83111 6.46567
1 10.4625 8.92123 6.27925
1 11.0188 10.25 5.6451
2 2.8025 0.940073 4.59663
1 3.38314 0.203945 4.3102
1 3.20108 1.57836 3.95665
2 10.8029 3.81369 1.95205
1 9.97809 4.14241 1.4794
1 10.5021 3.11899 2.54682
2 8.68872 7.12103 9.05751
1 7.89325 6.49581 9.11393
1 8.29476 8.0052 9.22037
2 11.0941 2.30408 11.8847
1 11.8299 2.32581 11.2206
1 11.3433 2.90981 0.177464
2 1.23749 3.78931 0.901515
1 1.46792 3.95543 1.8268
1 0.253805 3.92168 1.00199
2 1.98331 8.49815 3.61999
1 1.17695 8.01186 3.89971
1 2.44695 8.83937 4.44654
2 3.5834 3.45399 3.62181
1 3.16753 3.79114 4.41764
1 4.22978 4.05242 3.21554
2 6.25542 1.02817 10.5537
1 6.90284 1.73023 10.9213
1 5.73178 0.737012 11.3392
2 1.10212 5.82162 10.7832
1 1.05082 5.0186 11.4212
1 0.428759 5.70035 10.1041
2 7.75534 3.97374 3.19498
1 8.19211 4.52482 2.47585
1 7.01356 4.58817 3.46304
2 5.12111 3.57929 12.1947
1 4.3222 3.5757 11.6754
1 5.21498 2.87365 0.429129
2 0.340718 8.97814 8.4514
1 12.0441 9.29288 7.8595
1 0.256265 8.06169 8.22874
2 10.0362 1.6164 3.23146
1 9.64343 0.871378 2.74388
1 10.8777 1.30227 3.67113
2 4.06416 0.580993 1.16688
1 4.66789 1.01896 1.81353
1 4.38309 12.1703 0.931946
2 9.65769 4.60734 5.11052
1 10.5429 4.34141 4.82487
1 9.13445 4.49522 4.27973
2 10.5143 8.11925 2.91488
1 10.7586 9.08143 3.17612
1 10.9976 7.438 3.42871
2 4.07243 5.3611 7.03947
1 4.22794 6.42132 7.19204
1 4.85442 5.01681 6.61051
2 4.79103 2.26253 8.15382
1 5.36035 2.08325 7.41748
1 5.26517 1.80717 8.86717
2 4.56209 10.597 12.2657
1 4.84707 9.96969 0.569702
1 3.5982 10.3918 12.1803
2 1.313 12.067 9.84201
1 1.70123 11.4026 9.23918
1 0.308347 11.9862 9.77605
2 4.78656 7.84845 7.24768
1 5.4709 8.02514 6.47641
1 5.3474 8.08923 8.0443
2 6.10433 1.15114 5.91065
1 5.65215 1.45608 5.12049
1 7.02887 1.38366 5.61466
2 1.5052 5.07549 5.59133
1 1.20111 4.27378 6.02092
1 2.35931 5.27574 6.18022
2 8.64295 11.5685 6.88336
1 9.33598 10.9043 6.83607
1 8.36117 11.6944 7.83218
2 2.3458 8.17887 12.2681
1 1.77902 8.94961 12.3108
1 1.87926 7.34268 12.0214
2 0.838529 2.48085 10.427
1 0.928915 1.87853 9.66555
1 1.30505 2.07798 11.2037
2 5.60894 9.28011 1.89655
1 6.54203 8.90553 1.86532
1 4.99993 8.49231 1.99855
2 12.1863 5.92711 3.5733
1 0.351416 5.46063 4.15387
1 11.6584 5.2275 3.19447
192
Atoms. Timestep: 16
2 6.49573 9.07929 9.06518
1 6.97688 9.95326 8.8965
1 6.12075 9.33282 9.96009
2 11.0172 6.81605 0.606998
1 11.0182 7.33758 1.45046
1 11.089 7.3957 12.2414
2 11.1674 0.0207985 8.85103
1 10.3025 12.0621 8.68789
1 11.6414 12.2713 8.03463
2 10.6682 8.83807 10.6958
1 10.2249 8.03436 10.2332
1 11.5527 8.89299 10.3202
2 2.93256 9.49131 5.92104
1 3.39698 9.02561 6.58212
1 2.24707 10.0072 6.35215
2 9.01723 1.63715 5.77059
1 9.14628 0.680325 6.02958
1 9.28551 1.6972 4.8509
2 11.3025 12.1601 0.354587
1 11.3655 0.66581 0.100054
1 12.0667 11.6608 0.098785
2 3.63913 7.0015 2.19368
1 3.21346 7.23991 1.37513
1 3.03123 7.42267 2.83801
2 7.28543 4.75598 9.49094
1 7.90183 4.07147 9.86838
1 6.52959 4.71956 10.1122
2 8.87298 5.26157 0.834183
1 9.44112 6.00851 0.603914
1 7.93079 5.48165 0.557173
2 8.56288 11.8643 2.23755
1 8.43176 11.305 1.45582
1 8.11556 11.2912 2.97724
2 9.51564 7.43213 6.25596
1 9.49239 6.50945 5.89821
1 9.11378 7.29557 7.19388
2 5.55301 5.75049 3.52456
1 5.96126 6.52776 3.95709
1 4.94654 6.22584 2.8995
2 6.98777 4.89172 6.7027
1 7.72612 4.43806 6.27263
1 7.09922 4.7447 7.66651
2 12.22 1.23684 4.72611
1 0.739008 1.17133 4.45493
1 12.0935 1.85895 5.39824
2 4.9868 7.81534 11.0093
1 4.72829 7.19442 10.2729
1 4.14473 8.06455 11.4021
2 2.46456 1.60658 7.30117
1 3.24936 1.82711 7.80166
1 2.67382 1.64466 6.32399
2 1.14024 10.6327 12.2229
1 1.53204 11.1135 0.558455
1 1.31429 11.1783 11.3762
2 4.78969 11.1966 4.01218
1 4.9253 10.4845 3.32747
1 4.19883 10.6353 4.63768
2 3.11789 10.0791 9.46892
1 2.3867 9.37672 9.33337
1 3.94927 9.62381 9.30153
2 0.97176 11.6328 6.65737
1 0.545009 12.2484 6.05125
1 1.51967 12.1593 7.30093
2 6.41148 5.81573 0.466518
1 5.88324 4.96426 0.452679
1 5.87471 6.59573 0.223651
2 1.30222 0.224569 1.96169
1 2.25452 0.406265 1.95572
1 0.823405 1.09804 1.89411
2 0.167447 3.12062 7.06331
1 0.809999 2.4565 7.34324
1 11.9716 3.27382 7.79523
2 7.83401 7.84067 2.24417
1 7.60306 6.91038 2.14183
1 8.79629 7.79391 2.54901
2 8.90618 10.9463 12.0344
1 9.62238 11.6098 12.2148
1 9.48205 10.0978 12.0004
2 8.51219 3.14428 11.4603
1 8.52295 4.01775 11.9428
1 9.40648 2.78764 11.4506
2 7.30334 10.5549 4.6976
1 7.61346 10.9765 5.53363
1 6.46673 10.9836 4.42463
2 0.0716041 6.36621 7.68346
1 11.583 6.10767 7.85905
1 0.412656 5.93061 6.91694
2 6.16183 1.87544 2.69757
1 6.59987 2.7076 2.85615
1 6.88271 1.1775 2.55679
2 9.95406 3.22886 8.23353
1 9.82265 2.97097 7.33163
1 9.99284 2.41356 8.73331
2 3.96455 5.39299 9.79206
1 4.03835 5.14689 8.82911
1 3.02372 5.55699 10.0186
2 11.3275 10.7304 3.20432
1 12.1606 10.644 2.73414
1 10.7661 11.1852 2.57113
2 6.52249 7.88694 5.19603
1 7.41543 7.48406 5.49166
1 6.63042 8.78716 4.76622
2 8.01608 11.5989 9.43675
1 7.38762 12.1906 9.86299
1 8.44801 11.1942 10.2665
2 10.726 9.83317 6.45862
1 10.4138 8.94429 6.2784
1 11.0162 10.2157 5.62319
2 2.80186 0.940814 4.59665
1 3.41078 0.18214 4.38657
1 3.22019 1.57847 3.96837
2 10.8033 3.80423 1.94461
1 10.0116 4.12115 1.46951
1 10.5133 3.09365 2.5709
2 8.68913 7.12768 9.06188
1 7.9076 6.50144 9.13851
1 8.2712 7.95291 9.18809
2 11.0938 2.31668 11.8797
1 11.8493 2.27918 11.2484
1 11.342 2.90175 0.216879
2 1.24989 3.7823 0.903345
1 1.46725 3.99018 1.81755
1 0.285155 3.91415 0.976943
2 1.97294 8.49133 3.61643
1 1.17262 8.03349 3.89968
1 2.39456 8.85371 4.37638
2 3.58157 3.44862 3.63251
1 3.13618 3.78821 4.42474
1 4.23535 4.03447 3.19435
2 6.24571 1.02277 10.563
1 6.86 1.77673 10.8864
1 5.73217 0.727601 11.3648
2 1.09853 5.82448 10.7799
1 0.9871 5.08318 11.3727
1 0.455682 5.71145 10.0922
2 7.75795 3.97383 3.19782
1 8.17899 4.4983 2.50058
1 6.96907 4.57622 3.44556
2 5.1314 3.57769 12.1818
1 4.30811 3.60379 11.6694
1 5.19061 2.86623 0.466771
2 0.347751 8.97748 8.44565
1 12.0945 9.30854 7.85942
1 0.276179 8.04279 8.17661
2 10.0413 1.60286 3.2313
1 9.65616 0.887656 2.7198
1 10.8492 1.31348 3.65397
2 4.07335 0.592197 1.17709
1 4.71086 1.01733 1.83553
1 4.32518 12.1176 0.866978
2 9.65048 4.61592 5.1129
1 10.5437 4.28657 4.83363
1 9.13902 4.48416 4.26606
2 10.5263 8.12376 2.91474
1 10.7586 9.10015 3.17025
1 10.9855 7.43353 3.48896
2 4.07332 5.35484 7.04795
1 4.23438 6.3305 7.18056
1 4.85441 5.06807 6.61565
2 4.78389 2.25656 8.16409
1 5.40354 2.09267 7.40554
1 5.29441 1.79341 8.84779
2 4.57491 10.5856 12.2778
1 4.81382 9.96394 0.574453
1 3.60153 10.4238 12.1719
2 1.30702 12.0549 9.83954
1 1.66272 11.4063 9.23191
1 0.333574 11.9849 9.80572
2 4.79995 7.84405 7.24833
1 5.46198 8.02568 6.44217
1 5.33498 8.05043 8.02306
2 6.11517 1.15862 5.91396
1 5.69571 1.44893 5.12847
1 7.0297 1.35159 5.59977
2 1.49485 5.07491 5.58213
1 1.20089 4.26017 6.01574
1 2.353 5.27553 6.12275
2 8.63183 11.5639 6.86884
1 9.37942 10.9304 6.81147
1 8.35337 11.668 7.82589
2 2.35417 8.16605 12.2561
1 1.79645 8.9309 12.3235
1 1.90136 7.36523 12.0107
2 0.829428 2.47548 10.435
1 0.949076 1.85933 9.66303
1 1.32283 2.07172 11.1842
2 5.60008 9.26296 1.89971
1 6.53576 8.86495 1.843
1 4.98631 8.50604 1.92697
2 12.1969 5.93127 3.58353
1 0.337811 5.43605 4.21282
1 11.6479 5.22139 3.21582
192
Atoms. Timestep: 20
2 6.49984 9.08392 9.07429
1 6.90766 9.98341 8.89897
1 6.13314 9.34206 9.97017
2 11.0222 6.8064 0.595622
1 10.9996 7.3334 1.42916
1 11.1076 7.40805 12.2306
2 11.1637 0.0154251 8.85001
1 10.2914 12.0079 8.64697
1 11.6414 12.3228 7.99839
2 10.6781 8.84247 10.6911
1 10.276 8.0693 10.2403
1 11.5731 8.88017 10.3269
2 2.92641 9.48247 5.91121
1 3.40512 8.96515 6.57785
1 2.23399 9.99677 6.3826
2 9.01564 1.64222 5.78178
1 9.15694 0.745573 6.03292
1 9.21996 1.75732 4.82342
2 11.3017 12.1684 0.373254
1 11.3555 0.659985 0.0772056
1 12.1071 11.7202 0.126602
2 3.64913 6.99337 2.19967
1 3.19862 7.22494 1.35525
1 3.02038 7.43221 2.86162
2 7.27752 4.758 9.49458
1 7.93885 4.0448 9.86415
1 6.51045 4.78201 10.0605
2 8.85973 5.25426 0.839797
1 9.44769 6.04632 0.604546
1 7.92521 5.50244 0.577807
2 8.55808 11.8638 2.23521
1 8.42459 11.3135 1.42011
1 8.08886 11.3287 2.97599
2 9.50727 7.4347 6.25873
1 9.52769 6.53323 5.93869
1 9.09561 7.27919 7.1405
2 5.54614 5.7614 3.51838
1 5.95225 6.54231 3.95843
1 4.90273 6.22385 2.91831
2 6.97554 4.90006 6.699
1 7.69286 4.41234 6.28571
1 7.11163 4.77191 7.69343
2 12.2164 1.23773 4.71796
1 0.751613 1.14809 4.43758
1 12.118 1.9054 5.43624
2 4.98059 7.80768 11.0026
1 4.68048 7.20799 10.2785
1 4.1822 8.05956 11.4751
2 2.47058 1.61886 7.31562
1 3.2604 1.79997 7.83472
1 2.68501 1.65958 6.35238
2 1.13295 10.6496 12.2115
1 1.5253 11.123 0.583951
1 1.30137 11.1733 11.437
2 4.79762 11.2058 4.02049
1 4.958 10.4541 3.38133
1 4.24879 10.659 4.63769
2 3.12392 10.0829 9.47898
1 2.39614 9.38632 9.35461
1 4.02126 9.6481 9.26581
2 0.967442 11.6418 6.65359
1 0.506996 12.2544 6.08516
1 1.48579 12.1527 7.29026
2 6.40973 5.80381 0.478203
1 5.9161 4.97264 0.428244
1 5.84651 6.5583 0.180624
2 1.30234 0.212175 1.95414
1 2.269 0.415087 1.95775
1 0.878605 1.06094 1.88712
2 0.158432 3.12768 7.05848
1 0.855822 2.48467 7.3225
1 11.9605 3.27915 7.8321
2 7.82662 7.82915 2.24282
1 7.60852 6.86458 2.21866
1 8.74525 7.78035 2.55005
2 8.90783 10.9567 12.027
1 9.61291 11.6117 12.1359
1 9.44394 10.0982 11.9827
2 8.5187 3.14031 11.4571
1 8.54957 3.96105 11.9328
1 9.45169 2.80683 11.4247
2 7.29437 10.5533 4.6924
1 7.60665 10.9781 5.54582
1 6.44492 10.9959 4.45196
2 0.0747806 6.37095 7.69306
1 11.5524 6.1201 7.83777
1 0.44141 5.87595 6.89333
2 6.15668 1.88079 2.69614
1 6.58708 2.77912 2.85365
1 6.87602 1.18185 2.5276
2 9.97059 3.23962 8.22875
1 9.79137 2.93322 7.31299
1 9.95445 2.42855 8.7662
2 3.9752 5.39989 9.80075
1 4.02775 5.15363 8.79424
1 3.00189 5.52504 10.0021
2 11.3321 10.732 3.20072
1 12.1521 10.6537 2.66655
1 10.7496 11.2245 2.54896
2 6.53915 7.89014 5.19129
1 7.37732 7.53217 5.47314
1 6.59415 8.7932 4.75621
2 8.00878 11.6053 9.43791
1 7.34122 12.1591 9.87497
1 8.43775 11.1813 10.2674
2 10.7268 9.83759 6.45258
1 10.3496 8.93273 6.26241
1 11.0231 10.1798 5.59065
2 2.80385 0.941013 4.59431
1 3.41438 0.157899 4.48296
1 3.22341 1.60192 3.9926
2 10.8058 3.79493 1.93805
1 10.0325 4.12037 1.45888
1 10.5176 3.06443 2.5727
2 8.69054 7.13014 9.06539
1 7.96046 6.50568 9.16864
1 8.20222 7.96778 9.16242
2 11.0928 2.3296 11.877
1 11.8807 2.25119 11.2693
1 11.3234 2.87037 0.230402
2 1.26087 3.77523 0.905039
1 1.49062 4.02592 1.81841
1 0.322353 3.90553 0.94615
2 1.96067 8.48314 3.60829
1 1.16777 8.05492 3.90926
1 2.36136 8.88947 4.37335
2 3.57845 3.44048 3.64172
1 3.12849 3.81661 4.4169
1 4.22134 4.02705 3.21184
2 6.23754 1.01924 10.5747
1 6.77727 1.77916 10.8417
1 5.75066 0.729035 11.3638
2 1.09724 5.82924 10.7772
1 0.920683 5.11523 11.3467
1 0.46025 5.72263 10.0471
2 7.75796 3.97632 3.20272
1 8.16853 4.47275 2.49223
1 6.95313 4.54928 3.42091
2 5.144 3.57446 12.1715
1 4.28883 3.62179 11.6749
1 5.13579 2.89267 0.449117
2 0.355321 8.97656 8.44111
1 12.1318 9.35923 7.84302
1 0.310336 8.00631 8.12779
2 10.0443 1.59169 3.23114
1 9.65276 0.871953 2.67569
1 10.8678 1.3013 3.65813
2 4.08241 0.605726 1.18887
1 4.7392 0.972938 1.82571
1 4.28891 12.0748 0.811823
2 9.64531 4.62387 5.11315
1 10.5186 4.24536 4.86547
1 9.14034 4.46975 4.2825
2 10.5395 8.12879 2.91701
1 10.7575 9.05839 3.1519
1 10.9587 7.47213 3.5303
2 4.06964 5.34877 7.05742
1 4.25034 6.24912 7.16243
1 4.91131 5.09452 6.59548
2 4.78003 2.25066 8.17437
1 5.42972 2.10667 7.38262
1 5.31164 1.7737 8.85826
2 4.58433 10.5748 12.2902
1 4.80128 9.96582 0.578785
1 3.63934 10.4636 12.1476
2 1.29948 12.0439 9.83868
1 1.63379 11.3966 9.21931
1 0.367983 11.9837 9.8249
2 4.81432 7.8411 7.24551
1 5.42465 7.9992 6.45708
1 5.34017 8.0304 8.02083
2 6.12904 1.16571 5.91854
1 5.68172 1.45747 5.08346
1 7.03913 1.31389 5.62291
2 1.48826 5.07507 5.57489
1 1.18228 4.22781 6.02353
1 2.31443 5.27699 6.03276
2 8.62051 11.5603 6.8544
1 9.42565 10.9437 6.79441
1 8.3466 11.6338 7.80082
2 2.36723 8.15153 12.2451
1 1.77227 8.93891 12.3313
1 1.89055 7.3781 11.9834
2 0.82101 2.46952 10.4417
1 0.974352 1.84632 9.69031
1 1.34642 2.06539 11.1496
2 5.59274 9.24492 1.90308
1 6.49569 8.8429 1.83043
1 4.96844 8.5072 1.86424
2 12.2075 5.93478 3.59435
1 0.327823 5.43119 4.27485
1 11.6302 5.21473 3.21581
192
Atoms. Timestep: 24
2 6.50407 9.09293 9.08591
1 6.83924 9.98957 8.88375
1 6.14753 9.31242 9.96054
2 11.0274 6.7972 0.58098
1 10.9785 7.34326 1.40285
1 11.1207 7.41085 12.2659
2 11.158 0.00932899 8.84629
1 10.3087 11.9712 8.62724
1 11.6418 12.3747 7.98452
2 10.6877 8.8456 10.6876
1 10.3189 8.10879 10.2462
1 11.6108 8.87837 10.319
2 2.9191 9.47537 5.90112
1 3.42307 8.89597 6.58569
1 2.23154 9.98211 6.4096
2 9.01301 1.65188 5.79201
1 9.16922 0.751101 6.05075
1 9.16234 1.81032 4.80767
2 11.2981 12.1765 0.393059
1 11.3462 0.662194 0.0515688
1 12.1694 11.7627 0.146884
2 3.65772 6.98622 2.20562
1 3.18695 7.20954 1.32841
1 3.02141 7.44089 2.88003
2 7.27362 4.75708 9.4982
1 7.91913 4.07152 9.85402
1 6.47732 4.83312 10.0254
2 8.84689 5.24888 0.844805
1 9.4529 6.04967 0.62032
1 7.91703 5.52911 0.593456
2 8.55081 11.8607 2.23555
1 8.42192 11.3398 1.39066
1 8.09425 11.3966 2.94043
2 9.49771 7.43806 6.2623
1 9.57744 6.52324 5.95118
1 9.07681 7.27485 7.10826
2 5.53993 5.77342 3.51216
1 5.94213 6.54546 3.96945
1 4.86528 6.2119 2.93316
2 6.96278 4.90894 6.69791
1 7.67271 4.37746 6.28852