192
Atoms. Timestep: 0
2 12.2586 17.1587 17.0699
1 13.5021 18.4834 16.6995
1 11.4309 17.2324 18.7669
2 20.7851 12.9295 1.22076
1 20.8361 14.069 2.69097
1 20.8116 14.2315 23.3135
2 21.1385 0.09638 16.7316
1 19.3621 23.0698 16.8072
1 22.0644 22.7712 15.3465
2 20.0802 16.6371 20.2616
1 19.1354 15.2652 19.3489
1 21.5845 16.9055 19.2714
2 5.58603 18.0223 11.2439
1 6.54979 17.2891 12.6045
1 4.28023 19.1524 11.9166
2 17.0529 3.01978 10.847
1 16.9811 1.32659 11.4725
1 17.9429 2.98766 9.24265
2 21.3274 22.9035 0.5518
1 21.6846 1.17163 0.13228
1 22.6181 21.8339 23.4307
2 6.82002 13.2867 4.08937
1 6.12271 13.8536 2.47554
1 5.70319 14.1597 5.36682
2 13.7912 8.96297 17.9411
1 15.1575 7.73654 18.6667
1 12.425 8.6814 19.1184
2 16.8318 9.97208 1.53446
1 18.1886 11.3157 1.13384
1 15.1348 10.454 0.89762
2 16.1987 22.4084 4.27834
1 16.0324 21.4919 2.67207
1 15.6998 21.2481 5.76555
2 18.0148 13.9972 11.8221
1 17.8957 12.3872 11.0247
1 17.5574 13.8574 13.6004
2 10.5579 10.7979 6.69908
1 11.3043 12.1472 7.71764
1 9.6754 11.6218 5.27045
2 13.2923 9.18785 12.6706
1 14.7985 8.55101 11.8713
1 13.4416 8.71164 14.4999
2 23.1095 2.29602 8.97998
1 1.4532 2.54546 8.46975
1 22.8638 3.61505 10.2763
2 9.4543 14.8268 20.8399
1 9.26344 13.3566 19.6664
1 7.7252 15.2954 21.0988
2 4.56558 2.94608 13.6892
1 6.15862 3.57347 14.4205
1 5.17218 2.82325 11.8807
2 2.21287 19.9839 23.1378
1 2.92152 21.2405 0.92597
1 2.59837 20.7586 21.5712
2 8.9573 21.0497 7.51544
1 9.08202 20.2824 5.83547
1 7.85748 20.0878 8.72487
2 5.82225 18.9993 17.8145
1 4.36338 17.7597 17.4082
1 7.36426 17.9297 17.7389
2 1.8576 21.9133 12.629
1 1.46265 23.0074 11.2514
1 3.04246 23.1 13.47
2 12.1339 11.0625 0.81069
1 10.8262 9.76233 0.70109
1 11.138 12.5988 0.43464
2 2.43964 0.51023 3.76622
1 4.23299 0.98644 3.58292
1 1.50989 2.10893 3.53001
2 0.39117 5.83547 13.3585
1 1.55147 4.56558 14.052
1 22.4632 6.12271 14.6019
2 14.8835 14.8986 4.26511
1 14.3676 13.3245 3.53757
1 16.6542 15.0044 4.66951
2 16.8564 20.6056 22.809
1 18.1376 21.7337 0.018903
1 17.9354 19.0333 22.5841
2 15.9965 5.9772 21.6657
1 16.2535 7.54568 22.6276
1 17.6784 5.24777 21.9567
2 13.8838 19.9423 8.8836
1 14.4243 20.8607 10.4577
1 12.2398 20.6982 8.47353
2 0.10393 12.0168 14.4961
1 21.9227 11.208 14.7682
1 0.68408 11.327 12.8369
2 11.6653 3.45631 5.09848
1 12.8785 4.94352 5.37816
1 13.0863 2.12405 5.01722
2 18.7083 6.02634 15.6016
1 18.491 5.65973 13.8196
1 19.1032 4.3596 16.2441
2 7.43796 10.1441 18.4834
1 7.48143 9.69807 16.5729
1 5.65973 10.6184 18.8651
2 21.3728 20.2503 6.10382
1 23.117 20.2786 5.54446
1 20.3353 21.0818 4.80368
2 12.2303 14.8797 9.84925
1 13.8857 14.173 10.4218
1 13.0278 16.5275 9.26155
2 15.201 21.866 17.8447
1 14.2088 23.272 18.3738
1 16.1099 21.3199 19.4623
2 20.2692 18.5666 12.2605
1 19.9574 16.7978 11.7428
1 20.9004 19.4623 10.7979
2 5.31958 1.77823 8.65873
1 6.13216 0.27023 7.92551
1 5.79768 3.24844 7.59292
2 20.4128 7.28489 3.71709
1 18.9199 8.03512 2.94608
1 19.7155 5.75044 4.68463
2 16.4179 13.4454 17.0926
1 15.0347 12.2246 17.1927
1 15.7017 14.9969 17.4781
2 20.9646 4.27456 22.4764
1 22.1911 4.69219 21.0912
1 21.3596 5.59359 0.27779
2 2.25066 7.20175 1.70453
1 2.97065 7.26222 3.39206
1 0.47243 7.42662 2.005
2 3.81158 16.1024 6.88427
1 2.38483 15.1159 7.40773
1 4.56558 16.4803 8.50755
2 6.76333 6.53467 6.77278
1 6.22287 7.4304 8.33747
1 8.03323 7.89339 6.34003
2 11.8864 1.98232 19.895
1 13.1827 2.97443 20.8229
1 10.7809 1.3606 21.2745
2 2.10704 10.9623 20.4204
1 2.29602 9.54123 21.4257
1 0.78235 10.6486 19.245
2 14.6529 7.54001 6.01122
1 15.3559 8.39983 4.57125
1 13.3396 8.774 6.6405
2 9.64516 6.79923 23.1151
1 8.09937 6.50444 22.123
1 9.74532 5.19297 0.65385
2 0.58204 16.983 16.0041
1 22.7599 17.6444 14.9515
1 0.52156 15.08 15.7735
2 18.9539 3.1086 6.11893
1 18.1622 1.60816 5.28745
1 20.5168 2.47743 6.84648
2 7.61371 1.06203 2.15618
1 8.73242 1.98232 3.40907
1 8.67951 22.9243 1.91618
2 18.2907 8.66628 9.65272
1 20.0538 8.47731 9.11037
1 17.1436 8.4244 8.20519
2 19.7949 15.32 5.50666
1 20.4242 17.0151 6.02067
1 20.9476 14.0539 6.35704
2 7.67607 10.1932 13.2545
1 8.11259 11.8845 13.3906
1 9.1595 9.4184 12.5686
2 9.09714 4.31613 15.3748
1 10.0703 3.76622 13.7837
1 9.71508 3.47332 16.9017
2 8.54534 20.0897 23.1227
1 9.3995 19.0314 0.85605
1 6.81624 19.4793 22.9035
2 2.49444 22.8657 18.6195
1 3.37127 21.6298 17.6444
1 0.75022 22.6767 18.2283
2 8.98943 14.8854 13.7156
1 10.299 14.9591 12.3947
1 9.9513 15.5184 15.1273
2 11.4782 2.14484 11.1286
1 10.4502 2.69286 9.76044
1 13.2092 2.75711 10.9283
2 2.92908 9.59225 10.6392
1 2.14673 8.07669 11.4669
1 4.33314 10.0042 11.6936
2 16.3915 21.8944 13.0788
1 17.5329 20.3675 13.1128
1 15.8 22.1703 14.8268
2 4.3955 15.5014 23.2531
1 3.1823 16.9414 23.1643
1 3.37883 14.1049 22.7183
2 1.6365 4.73565 19.6664
1 1.75934 3.42985 18.3266
1 2.45286 3.90417 21.0875
2 10.6259 17.6141 3.57347
1 12.4287 17.0812 3.72276
1 9.66973 16.1647 4.12149
2 22.9602 11.1853 6.68963
1 0.88628 10.4596 7.69685
1 22.0607 9.83602 5.71075
192
Atoms. Timestep: 4
2 12.2625 17.1622 17.0892
1 13.452 18.4959 16.7002
1 11.4565 17.3277 18.7413
2 20.7922 12.9193 1.20689
1 20.8571 14.0082 2.70918
1 20.8503 14.1444 23.2627
2 21.1297 0.0822603 16.7328
1 19.32 23.008 16.719
1 22.1017 22.848 15.2847
2 20.0948 16.6495 20.2428
1 19.2266 15.3336 19.4193
1 21.6859 16.8837 19.3414
2 5.57286 18.0005 11.2244
1 6.58452 17.1853 12.6687
1 4.22323 19.1139 11.9356
2 17.0481 3.03875 10.8634
1 17.0643 1.31545 11.4139
1 17.9096 3.00784 9.16131
2 21.3367 22.924 0.578938
1 21.6224 1.2559 0.18141
1 22.6864 21.7977 0.00746266
2 6.83455 13.2709 4.10745
1 6.0859 13.8224 2.44255
1 5.67916 14.1258 5.40966
2 13.7851 8.9743 17.9337
1 15.049 7.70631 18.7121
1 12.4692 8.69431 19.1462
2 16.8147 9.96284 1.54617
1 18.1398 11.3753 1.11454
1 15.0818 10.3987 0.941062
2 16.1937 22.4104 4.26882
1 16.0038 21.4034 2.67806
1 15.6417 21.3098 5.65424
2 18.0075 14.0065 11.8253
1 17.8796 12.39 11.0324
1 17.5053 13.8859 13.5439
2 10.5403 10.8142 6.69048
1 11.3225 12.2035 7.64728
1 9.60082 11.6625 5.31861
2 13.2722 9.2015 12.669
1 14.7366 8.52679 11.8549
1 13.4147 8.76292 14.5223
2 23.1072 2.30126 8.96012
1 1.42919 2.45456 8.47463
1 22.8086 3.66198 10.3413
2 9.45166 14.8092 20.8313
1 9.20278 13.4563 19.6009
1 7.66414 15.2888 21.2008
2 4.58605 2.96597 13.7096
1 6.25615 3.59805 14.5305
1 5.13395 2.91594 11.9425
2 2.19676 20.0065 23.1297
1 2.93819 21.1828 0.972215
1 2.5796 20.8783 21.5341
2 8.97917 21.0734 7.53814
1 9.15014 20.1654 5.92255
1 7.92153 20.1721 8.6647
2 5.83221 19.0166 17.8351
1 4.49109 17.7849 17.4879
1 7.41446 17.9215 17.6944
2 1.85491 21.9298 12.618
1 1.35637 23.09 11.28
1 2.97663 23.0448 13.5326
2 12.1287 11.0427 0.826354
1 10.912 9.68432 0.775604
1 11.1422 12.5811 0.480819
2 2.43918 0.496513 3.75079
1 4.27022 0.913268 3.62102
1 1.55029 2.01513 3.57472
2 0.371948 5.8545 13.3555
1 1.5283 4.51335 14.0454
1 22.4901 6.15452 14.6581
2 14.8696 14.8792 4.25958
1 14.3104 13.2325 3.6276
1 16.6232 14.9536 4.70701
2 16.8481 20.6221 22.7899
1 18.1534 21.7811 23.4273
1 17.921 19.1388 22.6466
2 16.018 5.97552 21.6675
1 16.1819 7.51975 22.5562
1 17.7535 5.21762 21.8835
2 13.8623 19.944 8.88531
1 14.4138 20.824 10.4585
1 12.2357 20.7256 8.40189
2 0.113875 12.0231 14.5033
1 21.89 11.2924 14.8267
1 0.732443 11.2631 12.8131
2 11.6561 3.4754 5.09749
1 12.846 5.01805 5.4096
1 13.0518 2.21461 4.99028
2 18.7308 6.05014 15.5966
1 18.5441 5.65218 13.7322
1 19.0675 4.36329 16.3322
2 7.44876 10.1554 18.4849
1 7.55672 9.68467 16.6111
1 5.67887 10.6155 18.9181
2 21.3816 20.2575 6.09185
1 23.1366 20.191 5.46984
1 20.2748 21.1012 4.79669
2 12.2544 14.8802 9.84582
1 13.815 14.2303 10.3438
1 12.9493 16.5194 9.192
2 15.1916 21.8745 17.8398
1 14.1135 23.2896 18.4844
1 16.0573 21.2809 19.3946
2 20.2697 18.5751 12.2485
1 19.8926 16.7306 11.788
1 20.8705 19.4547 10.7331
2 5.30908 1.77656 8.67189
1 6.23456 0.321213 7.96785
1 5.88998 3.14365 7.52836
2 20.4135 7.25779 3.70743
1 18.8806 7.95062 2.89944
1 19.7473 5.80691 4.75066
2 16.4142 13.4412 17.0999
1 15.032 12.2937 17.1803
1 15.7073 15.1244 17.4848
2 20.9634 4.30123 22.4744
1 22.2817 4.60564 21.1037
1 21.3959 5.54881 0.254321
2 2.27782 7.18871 1.70139
1 2.89385 7.33544 3.45634
1 0.502459 7.41225 1.9597
2 3.78696 16.0862 6.86289
1 2.34421 15.1216 7.38925
1 4.64728 16.5725 8.5559
2 6.7694 6.5317 6.79564
1 6.14719 7.33715 8.35333
1 7.99023 7.81358 6.26022
2 11.8662 1.97165 19.915
1 13.0784 2.99335 20.7269
1 10.8352 1.406 21.2958
2 2.09991 10.9738 20.4073
1 2.2115 9.53207 21.4915
1 0.742868 10.7017 19.1514
2 14.6514 7.52664 6.02082
1 15.4193 8.48733 4.61781
1 13.3658 8.7308 6.60992
2 9.65512 6.78361 23.0934
1 8.10608 6.59323 22.0874
1 9.81254 5.31652 0.680981
2 0.606682 16.982 15.9934
1 22.7047 17.6015 14.9043
1 0.483892 15.0568 15.7022
2 18.9552 3.09724 6.11306
1 18.1681 1.57702 5.24963
1 20.5748 2.44497 6.91536
2 7.63371 1.07952 2.17324
1 8.72916 1.91731 3.37415
1 8.63062 22.8748 1.89246
2 18.2781 8.67794 9.64958
1 19.9904 8.40065 9.1236
1 17.1936 8.4769 8.18858
2 19.821 15.332 5.50881
1 20.3644 16.9632 5.9942
1 20.8803 14.0867 6.35334
2 7.68096 10.1731 13.2732
1 8.04619 12.0432 13.4878
1 9.2258 9.36704 12.4932
2 9.07978 4.30273 15.3857
1 10.1015 3.83572 13.8104
1 9.79898 3.44854 16.8908
2 8.56634 20.0656 23.1401
1 9.32414 18.9721 0.948926
1 6.85904 19.5451 22.9599
2 2.48796 22.8445 18.6109
1 3.32384 21.591 17.5733
1 0.737127 22.669 18.3212
2 9.00845 14.8634 13.7016
1 10.2687 15.039 12.4288
1 10.0371 15.4391 15.1645
2 11.5018 2.15268 11.1472
1 10.4571 2.74777 9.65667
1 13.2345 2.69972 10.8198
2 2.90515 9.59801 10.6136
1 2.17623 8.02391 11.4587
1 4.30733 9.96363 11.6723
2 16.3698 21.8864 13.0582
1 17.5868 20.3937 13.0444
1 15.8144 22.1574 14.7964
2 4.41095 15.4853 23.2295
1 3.18888 16.9957 23.1951
1 3.44381 14.0089 22.736
2 1.62059 4.71606 19.6793
1 1.74404 3.5097 18.309
1 2.41993 3.93838 21.1083
2 10.6239 17.5902 3.57588
1 12.3452 17.0105 3.65067
1 9.57963 16.1032 4.02695
2 22.9834 11.1928 6.71112
1 0.846259 10.4025 7.76832
1 22.0005 9.82153 5.81214
192
Atoms. Timestep: 8
2 12.2655 17.1628 17.1071
1 13.3772 18.5602 16.7355
1 11.5141 17.4375 18.7213
2 20.7994 12.9112 1.18695
1 20.8627 13.9497 2.75519
1 20.8913 14.0308 23.2253
2 21.1198 0.0677115 16.7327
1 19.3588 22.9458 16.6151
1 22.0714 22.9297 15.2445
2 20.113 16.6663 20.2294
1 19.2746 15.3182 19.4322
1 21.7847 16.859 19.3916
2 5.56004 17.9787 11.2083
1 6.56884 17.113 12.6608
1 4.21344 19.0473 11.9475
2 17.0446 3.06205 10.8759
1 17.1468 1.23072 11.4002
1 17.8158 3.05557 9.13169
2 21.3438 22.9432 0.608008
1 21.5563 1.31551 0.201813
1 22.7502 21.8021 0.0624446
2 6.8472 13.2573 4.12343
1 6.07503 13.7804 2.4845
1 5.69283 14.0719 5.39567
2 13.7847 8.97952 17.9297
1 14.8922 7.749 18.6986
1 12.4479 8.73232 19.1777
2 16.801 9.95591 1.55661
1 18.0318 11.3654 1.12875
1 15.0231 10.3668 0.982411
2 16.1885 22.411 4.25765
1 15.9643 21.3421 2.7316
1 15.5749 21.3666 5.54982
2 18.0014 14.0219 11.8236
1 17.8777 12.3194 11.0261
1 17.4226 13.8768 13.5815
2 10.5245 10.831 6.6808
1 11.3156 12.2583 7.57686
1 9.52534 11.6969 5.37491
2 13.2489 9.2159 12.6718
1 14.7 8.47979 11.8415
1 13.392 8.8316 14.4796
2 23.1057 2.3126 8.9465
1 1.37279 2.3566 8.47459
1 22.7929 3.61631 10.313
2 9.44497 14.7936 20.8217
1 9.13743 13.5259 19.5419
1 7.66524 15.2721 21.326
2 4.61072 2.98845 13.7323
1 6.28806 3.58228 14.6328
1 5.07546 2.99001 11.9985
2 2.18199 20.0324 23.1258
1 2.91648 21.0808 0.982929
1 2.57169 21.0205 21.4514
2 9.00344 21.1023 7.55622
1 9.2034 20.0333 6.0458
1 7.94484 20.1809 8.64838
2 5.84829 19.0263 17.8543
1 4.62117 17.8193 17.5647
1 7.36043 18.0027 17.6543
2 1.85024 21.9454 12.6073
1 1.23198 23.1556 11.2824
1 2.9559 23.0173 13.6247
2 12.1226 11.0287 0.842953
1 10.9765 9.56033 0.843505
1 11.1638 12.5417 0.512792
2 2.44334 0.475591 3.73653
1 4.28669 0.851796 3.64306
1 1.5589 2.01177 3.60211
2 0.349194 5.87242 13.3555
1 1.51751 4.50354 14.0113
1 22.5497 6.1737 14.6626
2 14.8472 14.8594 4.25209
1 14.2991 13.1827 3.74399
1 16.6743 14.8733 4.75132
2 16.8396 20.6382 22.7714
1 18.216 21.8787 23.3374
1 17.8907 19.198 22.6808
2 16.0428 5.96569 21.6654
1 16.1197 7.57889 22.5566
1 17.7713 5.20215 21.7863
2 13.8419 19.9463 8.88642
1 14.3937 20.7801 10.4388
1 12.2316 20.7508 8.35779
2 0.121724 12.0243 14.5062
1 21.9148 11.4006 14.8529
1 0.74793 11.2581 12.9079
2 11.6571 3.49709 5.09773
1 12.7114 5.02824 5.42104
1 12.9495 2.30153 4.95079
2 18.7567 6.0701 15.5867
1 18.5817 5.66039 13.7308
1 19.0115 4.40629 16.4042
2 7.45884 10.1663 18.485
1 7.59841 9.71506 16.7341
1 5.74368 10.583 18.9221
2 21.3888 20.2656 6.07802
1 23.1002 20.138 5.3853
1 20.2986 21.0896 4.8367
2 12.2779 14.8881 9.83858
1 13.8561 14.1769 10.3348
1 12.8015 16.5182 9.11666
2 15.1824 21.8841 17.8385
1 14.0273 23.2698 18.5798
1 15.9902 21.2469 19.3318
2 20.2698 18.5797 12.2356
1 19.8174 16.7471 11.833
1 20.844 19.418 10.6789
2 5.30021 1.77584 8.68153
1 6.33249 0.364044 8.03316
1 5.97721 3.05147 7.48872
2 20.4155 7.22932 3.69978
1 18.8541 7.89203 2.84429
1 19.8044 5.88325 4.78307
2 16.4159 13.4451 17.1064
1 14.971 12.3013 17.1906
1 15.6915 15.1876 17.4751
2 20.9633 4.32759 22.4685
1 22.3433 4.50743 21.1507
1 21.4193 5.51896 0.275604
2 2.30859 7.17546 1.70048
1 2.83619 7.41057 3.47609
1 0.465742 7.40752 1.93751
2 3.7653 16.0722 6.84627
1 2.27189 15.1035 7.37497
1 4.69301 16.6566 8.55504
2 6.77344 6.53161 6.82042
1 6.0667 7.22771 8.35142
1 7.95306 7.71445 6.17552
2 11.8444 1.95923 19.9322
1 13.0348 3.08135 20.6621
1 10.8534 1.42147 21.3393
2 2.09154 10.9887 20.3905
1 2.12149 9.46533 21.5884
1 0.753582 10.7533 19.0953
2 14.6514 7.5162 6.03001
1 15.4793 8.55672 4.63545
1 13.3466 8.69365 6.58344
2 9.66347 6.76927 23.0688
1 8.14321 6.69088 22.0724
1 9.87261 5.4074 0.739214
2 0.62935 16.9739 15.984
1 22.6661 17.576 14.849
1 0.462358 15.1339 15.6246
2 18.9585 3.07807 6.10674
1 18.1896 1.60614 5.23303
1 20.6153 2.4333 6.96239
2 7.65795 1.09049 2.18996
1 8.75637 1.88575 3.37619
1 8.47522 22.9188 1.84381
2 18.2664 8.69123 9.65039
1 19.935 8.31965 9.12726
1 17.2355 8.49772 8.14456
2 19.8453 15.3376 5.50936
1 20.3516 17.0276 5.98928
1 20.8229 14.1075 6.38405
2 7.68688 10.1495 13.2887
1 8.01604 12.1617 13.5756
1 9.23608 9.37537 12.4716
2 9.06489 4.28914 15.3949
1 10.1083 3.89378 13.9312
1 9.88699 3.43384 16.821
2 8.5915 20.0449 23.157
1 9.25881 18.8876 1.04529
1 6.83701 19.5877 22.992
2 2.48589 22.8232 18.6049
1 3.30128 21.5563 17.5026
1 0.633262 22.6556 18.4025
2 9.02411 14.8451 13.6957
1 10.2956 15.112 12.343
1 10.0985 15.3557 15.2076
2 11.5202 2.16245 11.1612
1 10.5483 2.76843 9.62305
1 13.2686 2.65555 10.698
2 2.87432 9.5965 10.5874
1 2.2231 8.03411 11.4183
1 4.38975 9.96239 11.6997
2 16.3515 21.8739 13.0332
1 17.6092 20.4796 12.9701
1 15.8097 22.1357 14.7956
2 4.42409 15.4717 23.2057
1 3.25678 16.9916 23.237
1 3.49105 13.9061 22.7251
2 1.60341 4.70013 19.6914
1 1.75047 3.55812 18.2954
1 2.41254 3.95552 21.1308
2 10.6169 17.5664 3.57936
1 12.3197 16.9083 3.58516
1 9.49512 16.057 3.92222
2 23.0053 11.1973 6.73265
1 0.757683 10.3582 7.81079
1 21.9927 9.83813 5.92485
192
Atoms. Timestep: 12
2 12.2696 17.1613 17.1215
1 13.2968 18.6757 16.7786
1 11.5535 17.5515 18.7671
2 20.8065 12.9016 1.16678
1 20.8526 13.8952 2.78102
1 20.9393 13.9514 23.1682
2 21.1098 0.0531905 16.7309
1 19.4402 22.8827 16.5079
1 21.9961 23.0094 15.2174
2 20.1377 16.6883 20.2202
1 19.2839 15.2191 19.3835
1 21.8274 16.8223 19.4426
2 5.54954 17.9553 11.1967
1 6.48966 17.0858 12.5579
1 4.23672 18.9662 11.9562
2 17.0429 3.08158 10.8864
1 17.2151 1.19967 11.3968
1 17.667 3.12892 9.15734
2 21.3505 22.9608 0.637622
1 21.4933 1.31122 0.195177
1 22.7644 21.8916 0.138279
2 6.85978 13.2449 4.13683
1 6.08029 13.7357 2.56384
1 5.71284 14.022 5.36771
2 13.78 8.98441 17.9281
1 14.8185 7.75513 18.6771
1 12.3878 8.81504 19.1722
2 16.7862 9.94855 1.56663
1 17.9133 11.3281 1.15988
1 14.9839 10.3617 1.03085
2 16.1849 22.4139 4.24025
1 15.924 21.3118 2.78838
1 15.469 21.3572 5.56217
2 17.9942 14.0355 11.8195
1 17.8997 12.2828 11.0552
1 17.3381 13.8388 13.6297
2 10.5107 10.8491 6.67084
1 11.2956 12.3029 7.51622
1 9.44203 11.7162 5.42295
2 13.2238 9.23145 12.6735
1 14.6634 8.42107 11.8465
1 13.3823 8.89723 14.4373
2 23.0988 2.32635 8.93826
1 1.38065 2.26601 8.44671
1 22.8156 3.52346 10.2276
2 9.43304 14.7818 20.8137
1 9.0616 13.5498 19.4738
1 7.753 15.2381 21.4527
2 4.63751 3.01361 13.7642
1 6.23876 3.52189 14.6816
1 5.03946 3.04769 11.9774
2 2.16816 20.0618 23.1159
1 2.889 20.9916 0.996819
1 2.5522 21.1209 21.4378
2 9.03004 21.1343 7.56844
1 9.25296 19.9088 6.18055
1 7.91176 20.1202 8.70925
2 5.87143 19.0391 17.8742
1 4.61394 17.7579 17.6161
1 7.33527 18.1077 17.612
2 1.84182 21.9631 12.5946
1 1.13294 23.1611 11.3343
1 2.95505 23.0165 13.7037
2 12.1171 11.0147 0.861437
1 11.0313 9.44933 0.891741
1 11.1634 12.5063 0.5156
2 2.45134 0.447896 3.72378
1 4.27639 0.809942 3.64703
1 1.55165 2.08675 3.6143
2 0.32674 5.88721 13.356
1 1.51185 4.54954 13.9459
1 22.5921 6.18988 14.6591
2 14.8244 14.8397 4.24488
1 14.3137 13.1528 3.87626
1 16.7073 14.7791 4.78059
2 16.8329 20.6621 22.7557
1 18.2526 21.96 23.1997
1 17.8863 19.147 22.6842
2 16.0687 5.95229 21.6613
1 16.0877 7.62882 22.5799
1 17.7451 5.21956 21.6854
2 13.8216 19.9475 8.88378
1 14.3713 20.7543 10.435
1 12.2385 20.7745 8.35347
2 0.130078 12.0246 14.5093
1 21.9287 11.4999 14.8535
1 0.755246 11.2724 13.0372
2 11.6557 3.52433 5.09884
1 12.5459 5.02976 5.42456
1 12.9171 2.27336 4.88783
2 18.7852 6.08679 15.573
1 18.6045 5.67491 13.8126
1 18.9366 4.48968 16.4455
2 7.47294 10.1775 18.4925
1 7.61536 9.74853 16.7805
1 5.76838 10.5446 18.9009
2 21.3962 20.2725 6.06571
1 23.0293 20.12 5.29074
1 20.3551 21.0814 4.87057
2 12.3005 14.8986 9.82988
1 13.9559 14.0801 10.3584
1 12.6405 16.5376 9.03673
2 15.1681 21.8991 17.8379
1 13.9821 23.1815 18.6306
1 15.9581 21.1843 19.3419
2 20.2698 18.5813 12.2218
1 19.7343 16.8311 11.8678
1 20.8206 19.3468 10.6441
2 5.29473 1.77567 8.68579
1 6.40975 0.380941 8.13764
1 6.03946 2.99837 7.48524
2 20.4185 7.20521 3.68953
1 18.8749 7.84921 2.80253
1 19.8516 5.90902 4.8278
2 16.4178 13.4588 17.1128
1 14.9067 12.2895 17.2216
1 15.6837 15.1208 17.4349
2 20.9643 4.3514 22.4585
1 22.3768 4.41155 21.2194
1 21.4355 5.52032 0.352469
2 2.33651 7.16319 1.7027
1 2.80679 7.48534 3.45258
1 0.447851 7.39569 1.91834
2 3.74581 16.0596 6.83687
1 2.22954 15.1001 7.36068
1 4.65599 16.7026 8.47022
2 6.77288 6.52693 6.84454
1 5.99362 7.15206 8.358
1 7.95181 7.66293 6.09789
2 11.8224 1.94569 19.9457
1 13.0392 3.22615 20.6253
1 10.8337 1.40534 21.4188
2 2.08249 10.9981 20.3772
1 2.01879 9.49011 21.5996
1 0.81729 10.7989 19.0839
2 14.6554 7.51065 6.03529
1 15.5065 8.56599 4.67347
1 13.276 8.67549 6.5706
2 9.67451 6.76006 23.0415
1 8.16515 6.77365 22.0658
1 9.90575 5.42406 0.841149
2 0.645222 16.9649 15.972
1 22.708 17.5643 14.8423
1 0.471999 15.2195 15.5476
2 18.9675 3.05289 6.10304
1 18.2162 1.657 5.22046
1 20.5996 2.45156 6.96453
2 7.67999 1.10086 2.20536
1 8.83745 1.892 3.43681
1 8.29284 22.9504 1.76561
2 18.2534 8.7066 9.65441
1 19.9401 8.2244 9.1218
1 17.2531 8.48887 8.0887
2 19.8658 15.3422 5.5069
1 20.372 17.1459 5.99364
1 20.8123 14.0871 6.48158
2 7.69426 10.1298 13.302
1 8.01803 12.1062 13.6219
1 9.1824 9.46134 12.5109
2 9.04989 4.27691 15.4076
1 10.141 3.92952 14.0202
1 9.97235 3.42253 16.7423
2 8.61891 20.0238 23.1767
1 9.19506 18.8326 1.09685
1 6.78917 19.624 22.9916
2 2.48217 22.7991 18.5997
1 3.25892 21.5605 17.4683
1 0.575792 22.6394 18.478
2 9.04148 14.8313 13.6962
1 10.3247 15.1593 12.2102
1 10.1105 15.2654 15.2144
2 11.5369 2.1755 11.1679
1 10.6908 2.74885 9.67073
1 13.2907 2.60794 10.6013
2 2.8459 9.5919 10.5652
1 2.26168 8.07377 11.3626
1 4.46472 9.97079 11.6841
2 16.3344 21.8605 13.0049
1 17.6284 20.5781 12.9002
1 15.7938 22.102 14.8079
2 4.4352 15.4552 23.1816
1 3.35081 16.9382 23.2769
1 3.54406 13.8759 22.7032
2 1.58437 4.68933 19.7039
1 1.78351 3.55339 18.2732
1 2.43499 3.94967 21.1486
2 10.6034 17.54 3.58462
1 12.3423 16.7873 3.52941
1 9.44698 16.0601 3.80543
2 23.0241 11.2009 6.75286
1 0.679107 10.3115 7.86994
1 22.0103 9.8732 6.02701
192
Atoms. Timestep: 16
2 12.2754 17.1625 17.1357
1 13.2018 18.7956 16.8128
1 11.5718 17.6374 18.8379
2 20.8134 12.8892 1.14844
1 20.8283 13.8525 2.75601
1 20.9958 13.9249 23.1022
2 21.1018 0.0408378 16.7294
1 19.4726 22.7968 16.4102
1 21.9299 23.0756 15.1642
2 20.1624 16.7062 20.2105
1 19.3366 15.1815 19.3545
1 21.8329 16.7762 19.4826
2 5.54049 17.9316 11.1834
1 6.41235 17.0512 12.4484
1 4.23968 18.9113 11.9833
2 17.0412 3.09434 10.9004
1 17.2568 1.27335 11.3873
1 17.5094 3.22087 9.16198
2 21.353 22.9783 0.669185
1 21.4427 1.27061 0.164899
1 22.7887 22.0141 0.208569
2 6.87551 13.2313 4.1498
1 6.06956 13.7063 2.58711
1 5.70805 13.9964 5.37821
2 13.7655 8.9925 17.9288
1 14.8744 7.6719 18.682
1 12.3341 8.94165 19.0984
2 16.7654 9.93541 1.57776
1 17.8516 11.3422 1.17881
1 14.9741 10.389 1.08645
2 16.1801 22.4161 4.2242
1 15.8915 21.2939 2.78693
1 15.367 21.3494 5.63
2 17.9829 14.0434 11.8182
1 17.9474 12.3147 11.1239
1 17.287 13.7936 13.6006
2 10.4987 10.8683 6.66072
1 11.277 12.3368 7.47873
1 9.35283 11.7121 5.45405
2 13.1982 9.24813 12.6688
1 14.6035 8.3666 11.8798
1 13.3897 8.94335 14.4711
2 23.09 2.33427 8.92663
1 1.42598 2.18872 8.40514
1 22.8519 3.51042 10.2091
2 9.42045 14.7702 20.8046
1 8.97936 13.5675 19.438
1 7.85165 15.2046 21.5833
2 4.66115 3.03948 13.7991
1 6.17893 3.44469 14.6965
1 5.03012 3.08856 11.9468
2 2.1535 20.0925 23.0949
1 2.88889 20.9661 1.05886
1 2.52208 21.1534 21.5314
2 9.05233 21.1615 7.5808
1 9.3086 19.8185 6.30289
1 7.91181 20.0935 8.76856
2 5.88966 19.0545 17.8946
1 4.55097 17.6809 17.6623
1 7.45055 18.1646 17.5496
2 1.83208 21.9833 12.5834
1 1.06228 23.1315 11.4236
1 2.92818 23.017 13.7181
2 12.1125 10.9961 0.882538
1 11.0893 9.41502 0.906666
1 11.1209 12.479 0.479827
2 2.45658 0.420931 3.71228
1 4.26802 0.797457 3.63413
1 1.59939 2.11328 3.62133
2 0.306373 5.89958 13.3531
1 1.52894 4.62533 13.8741
1 22.5766 6.20917 14.6946
2 14.808 14.8221 4.2402
1 14.3192 13.0838 4.00451
1 16.6558 14.7026 4.77948
2 16.8324 20.6906 22.7416
1 18.2274 21.9743 23.0247
1 17.8621 19.0801 22.6699
2 16.0888 5.94257 21.6571
1 16.1021 7.57565 22.5756
1 17.7542 5.24749 21.5962
2 13.8017 19.9468 8.87639
1 14.3542 20.7538 10.4603
1 12.2425 20.8058 8.38647
2 0.139115 12.03 14.5207
1 21.874 11.5691 14.8397
1 0.806854 11.2322 13.0579
2 11.6464 3.54709 5.09882
1 12.4507 5.11879 5.44134
1 12.945 2.18295 4.81107
2 18.8162 6.1054 15.5616
1 18.5981 5.66911 13.8568
1 18.8524 4.55619 16.4851
2 7.49284 10.1895 18.5102
1 7.6224 9.76025 16.6884
1 5.71023 10.5125 18.8768
2 21.4048 20.2754 6.0594
1 22.9877 20.1261 5.17642
1 20.3616 21.1263 4.8356
2 12.3281 14.9053 9.82333
1 13.97 14.0628 10.3431
1 12.521 16.5579 8.96701
2 15.1507 21.9165 17.8393
1 13.9623 23.0573 18.6404
1 15.949 21.1085 19.3924
2 20.2704 18.5843 12.2091
1 19.6283 16.8999 11.8793
1 20.8107 19.2625 10.6008
2 5.29323 1.77554 8.68471
1 6.45565 0.370724 8.28429
1 6.07037 2.99534 7.5151
2 20.4241 7.18647 3.67546
1 18.9335 7.82392 2.77798
1 19.8733 5.86948 4.8895
2 16.4177 13.4721 17.118
1 14.9171 12.3023 17.2678
1 15.6464 15.0379 17.3889
2 20.9657 4.37516 22.4501
1 22.4132 4.33372 21.2797
1 21.4232 5.50213 0.418517
2 2.35725 7.15212 1.70611
1 2.81878 7.56422 3.42455
1 0.498922 7.36713 1.89332
2 3.72625 16.0473 6.83182
1 2.23444 15.1227 7.34611
1 4.54812 16.7095 8.33654
2 6.76877 6.51579 6.86598
1 5.93915 7.13683 8.37562
1 7.96248 7.66104 6.05953
2 11.8036 1.93538 19.9619
1 12.9968 3.32972 20.5742
1 10.8221 1.38853 21.4839
2 2.07633 11.0021 20.3716
1 1.91245 9.61223 21.5193
1 0.868986 10.8315 19.0542
2 14.6608 7.51184 6.03804
1 15.4978 8.51693 4.73098
1 13.2008 8.65057 6.55545
2 9.6927 6.75195 23.0171
1 8.13432 6.82679 22.061
1 9.88059 5.43944 0.901308
2 0.65596 16.9612 15.9588
1 22.8139 17.5887 14.8778
1 0.513475 15.1982 15.4611
2 18.9821 3.02727 6.10349
1 18.2232 1.66665 5.17595
1 20.5441 2.48092 6.93432
2 7.69917 1.12035 2.22408
1 8.91835 1.86996 3.48481
1 8.15343 22.8776 1.65489
2 18.242 8.72259 9.65713
1 19.9399 8.13169 9.13393
1 17.2627 8.45811 8.07099
2 19.8869 15.3501 5.50606
1 20.3896 17.1904 5.97416
1 20.8067 14.0863 6.59742
2 7.69613 10.1167 13.3168
1 8.0453 11.9161 13.6253
1 9.17951 9.55057 12.5472
2 9.03467 4.26641 15.4258
1 10.216 3.9519 13.9974
1 10.0475 3.40506 16.7139
2 8.64189 20.0002 23.1996
1 9.13964 18.8267 1.09412
1 6.81333 19.6762 22.9609
2 2.47268 22.7738 18.5964
1 3.20108 21.5785 17.4586
1 0.622221 22.623 18.5393
2 9.06383 14.8217 13.6957
1 10.2937 15.1599 12.1427
1 10.0926 15.1848 15.186
2 11.5596 2.18964 11.1728
1 10.7731 2.73693 9.6781
1 13.2857 2.54552 10.5679
2 2.82695 9.59054 10.5469
1 2.25605 8.06047 11.3357
1 4.45996 9.97032 11.5795
2 16.3151 21.8503 12.9761
1 17.6852 20.6353 12.8412
1 15.7828 22.0497 14.7963
2 4.4493 15.432 23.1578
1 3.40258 16.8977 23.3093
1 3.58697 13.9182 22.6674
2 1.56486 4.68099 19.7165
1 1.84095 3.52016 18.2763
1 2.47234 3.93481 21.1323
2 10.589 17.51 3.59146
1 12.3287 16.6889 3.48864
1 9.42922 16.0928 3.69139
2 23.0414 11.2064 6.77282
1 0.642947 10.2649 7.97338
1 22.0008 9.88491 6.08174
192
Atoms. Timestep: 20
2 12.2823 17.1725 17.155
1 13.0831 18.8641 16.828
1 11.5935 17.654 18.857
2 20.8206 12.8741 1.12747
1 20.7971 13.8476 2.6985
1 21.0549 13.9232 23.0868
2 21.0946 0.0300508 16.7273
1 19.445 22.6937 16.3417
1 21.9069 23.1319 15.0841
2 20.182 16.7164 20.1999
1 19.4366 15.2496 19.3712
1 21.8692 16.7381 19.4881
2 5.52912 17.912 11.1629
1 6.4061 16.9439 12.4325
1 4.2121 18.8889 12.0289
2 17.0381 3.10496 10.9201
1 17.2769 1.38904 11.3773
1 17.372 3.32096 9.10401
2 21.3471 22.9951 0.704195
1 21.4033 1.25932 0.111197
1 22.8848 22.1079 0.252088
2 6.89326 13.217 4.16271
1 6.04415 13.6874 2.54551
1 5.68812 13.9879 5.42795
2 13.749 8.99827 17.9326
1 14.9307 7.61461 18.6731
1 12.2897 9.08138 18.9871
2 16.74 9.91682 1.59006
1 17.8483 11.403 1.18421
1 14.9825 10.4431 1.14016
2 16.1702 22.4127 4.21595
1 15.8728 21.2922 2.73447
1 15.3299 21.4197 5.64611
2 17.9672 14.048 11.8216
1 18.0171 12.3521 11.1849
1 17.2694 13.7612 13.5089
2 10.4879 10.8887 6.65022
1 11.2636 12.3622 7.47032
1 9.26604 11.683 5.4691
2 13.172 9.26547 12.6617
1 14.5329 8.31533 11.9278
1 13.4028 8.9819 14.5325
2 23.0849 2.33396 8.90788
1 1.41763 2.13445 8.3852
1 22.9016 3.6052 10.2843
2 9.41179 14.7567 20.7918
1 8.88969 13.596 19.4589
1 7.89106 15.1855 21.7293
2 4.67439 3.06396 13.8273
1 6.21896 3.38531 14.7383
1 5.03968 3.10754 11.9923
2 2.13873 20.1228 23.0714
1 2.8936 20.9773 1.12208
1 2.50502 21.1623 21.6513
2 9.06712 21.1789 7.59669
1 9.37341 19.7813 6.40318
1 7.98851 20.1557 8.78862
2 5.90184 19.063 17.9135
1 4.56929 17.697 17.7207
1 7.58437 18.2178 17.4825
2 1.82366 22.0018 12.5783
1 0.982062 23.1369 11.4773
1 2.87644 23.0214 13.6698
2 12.1081 10.9767 0.905794
1 11.1305 9.44112 0.884824
1 11.0603 12.421 0.411952
2 2.45773 0.397232 3.7018
1 4.28463 0.809217 3.60931
1 1.70428 2.05683 3.62617
2 0.284758 5.91275 13.3466
1 1.59244 4.69013 13.8315
1 22.5359 6.21447 14.7445
2 14.7965 14.8031 4.23719
1 14.3059 13.0022 4.12813
1 16.555 14.67 4.76057
2 16.8375 20.7164 22.7272
1 18.1813 21.9404 22.8446
1 17.7819 19.0885 22.6479
2 16.1011 5.93474 21.6507
1 16.1601 7.47105 22.5713
1 17.8314 5.26962 21.5224
2 13.784 19.9451 8.86658
1 14.3415 20.7576 10.4855
1 12.2186 20.8524 8.44721
2 0.146508 12.0387 14.539
1 21.8126 11.6208 14.7956
1 0.877633 11.1545 13.0081
2 11.6346 3.55863 5.09659
1 12.444 5.24443 5.45793
1 12.9348 2.18151 4.75175
2 18.85 6.12884 15.5556
1 18.5535 5.62713 13.7975
1 18.763 4.57525 16.5405
2 7.51326 10.2014 18.5289
1 7.61602 9.77645 16.6146
1 5.65362 10.4701 18.8399
2 21.4129 20.2763 6.05462
1 22.9831 20.1496 5.05879
1 20.3352 21.195 4.7888
2 12.3587 14.9088 9.81817
1 13.9042 14.1487 10.2783
1 12.4688 16.5479 8.92617
2 15.1365 21.9288 17.8452
1 13.9063 22.9749 18.6469
1 15.9225 21.0637 19.4019
2 20.2722 18.5908 12.1982
1 19.4891 16.9091 11.8696
1 20.8183 19.1825 10.5329
2 5.29515 1.77509 8.67994
1 6.46768 0.343957 8.46156
1 6.0765 3.03842 7.56347
2 20.4338 7.16853 3.66209
1 18.9814 7.82829 2.75848
1 19.8841 5.82426 4.90759
2 16.4183 13.4779 17.121
1 15.0051 12.3167 17.3262
1 15.5367 15.0761 17.3588
2 20.9669 4.40024 22.4461
1 22.4687 4.28463 21.3153
1 21.374 5.44139 0.439358
2 2.37308 7.14185 1.70962
1 2.877 7.64969 3.40966
1 0.581372 7.32685 1.86531
2 3.70497 16.0341 6.82231
1 2.23493 15.1387 7.34492
1 4.44152 16.7247 8.26571
2 6.76292 6.50059 6.88471
1 5.92237 7.17601 8.3722
1 7.94107 7.67432 6.0941
2 11.7879 1.9297 19.9839
1 12.8769 3.34938 20.5013
1 10.8454 1.39206 21.4972
2 2.07474 11.0096 20.3677
1 1.79557 9.68361 21.4678
1 0.885864 10.8551 18.9771
2 14.6622 7.51778 6.04337
1 15.4895 8.46038 4.74235
1 13.1629 8.60268 6.52655
2 9.71619 6.7424 22.9961
1 8.09103 6.84687 22.0894
1 9.78595 5.49219 0.873081
2 0.667877 16.9571 15.9484
1 22.8934 17.6878 14.8846
1 0.584586 15.1143 15.3747
2 18.9966 3.00422 6.10534
1 18.2152 1.63363 5.10146
1 20.5232 2.4818 6.91616
2 7.71802 1.14482 2.24552
1 8.96941 1.77863 3.47685
1 8.05088 22.8078 1.55662
2 18.2354 8.73742 9.65646
1 19.8794 8.06171 9.18272
1 17.2714 8.41327 8.1109
2 19.9114 15.3594 5.51032
1 20.3929 17.1322 5.92486
1 20.7685 14.1575 6.67414
2 7.68844 10.1018 13.3329
1 8.09337 11.7844 13.6241
1 9.29548 9.5759 12.5395
2 9.02687 4.2553 15.4442
1 10.2463 3.9895 13.9449
1 10.09 3.39163 16.7365
2 8.65943 19.9777 23.2226
1 9.11468 18.8335 1.08697
1 6.8945 19.7345 22.8969
2 2.46017 22.751 18.5975
1 3.16394 21.5579 17.4313
1 0.692118 22.6048 18.5748
2 9.08856 14.8152 13.689
1 10.2048 15.1123 12.1831
1 10.0973 15.136 15.164
2 11.5878 2.20336 11.1792
1 10.7547 2.75194 9.59526
1 13.2939 2.47752 10.601
2 2.81605 9.59178 10.5309
1 2.20977 8.00141 11.3411
1 4.39162 9.96409 11.4136
2 16.294 21.8431 12.9476
1 17.7658 20.6567 12.7957
1 15.7811 21.9796 14.7449
2 4.47082 15.4053 23.1361
1 3.38725 16.9011 23.3328
1 3.57063 13.9494 22.593
2 1.54649 4.67205 19.7275
1 1.91081 3.49064 18.3274
1 2.51874 3.92476 21.0814
2 10.5789 17.4783 3.59916
1 12.2471 16.6347 3.46795
1 9.4008 16.0979 3.59463
2 23.0599 11.2114 6.79552
1 0.608608 10.2594 8.07371
1 21.9611 9.87536 6.08525
192
Atoms. Timestep: 24
2 12.2897 17.1917 17.1795
1 12.9601 18.883 16.8105
1 11.6167 17.5887 18.8342
2 20.828 12.8563 1.1015