ITEM: TIMESTEP
0
ITEM: NUMBER OF ATOMS
192
ITEM: BOX BOUNDS pp pp pp
0.0000000000000000e+00 2.3470396999999998e+01
0.0000000000000000e+00 2.3470396999999998e+01
0.0000000000000000e+00 2.3470396999999998e+01
ITEM: ATOMS type vx vy vz 
2 0.00229897 0.00219446 0.00938997 
1 -0.0128414 -0.00169732 -0.0127281 
1 -0.00343521 0.0432021 -0.00118038 
2 0.0034143 -0.00631928 -0.00495769 
1 0.0146837 -0.0280571 -0.00206535 
1 0.0194465 -0.0287732 -0.0309315 
2 -0.00432767 -0.00730451 0.000568668 
1 -0.0349412 -0.0273387 -0.039013 
1 0.0340076 0.0383398 -0.0310935 
2 0.00804552 0.00679155 -0.0100522 
1 0.0404613 0.0293309 0.0330649 
1 0.0424983 -0.0116837 0.0440641 
2 -0.00615802 -0.0114236 -0.0093781 
1 0.016844 -0.0496282 0.0312528 
1 -0.0348428 -0.0161677 0.00891789 
2 -0.00228515 0.00774142 0.0083485 
1 0.0404792 0.0222921 -0.0420808 
1 -0.00809042 0.00461475 -0.0415904 
2 0.00612979 0.0102998 0.0125932 
1 -0.0298937 0.0357912 0.0316773 
1 0.0183851 -0.0104023 0.0285638 
2 0.00740548 -0.00808571 0.0090879 
1 -0.0209085 -0.0154248 -0.025546 
1 -0.0207495 -0.0118003 0.0338854 
2 -0.00490311 0.007359 -0.00453224 
1 -0.0297272 -0.0390397 0.0373325 
1 0.0331934 0.002835 0.0130623 
2 -0.0095067 -0.00503571 0.0061605 
1 -0.0107687 0.0432195 -0.0167226 
1 -0.0208546 -0.0332336 0.023298 
2 -0.00219813 0.00192532 -0.00586851 
1 -0.0100962 -0.0458568 -0.00644044 
1 -0.032154 0.0186714 -0.037178 
2 -0.00389024 0.00266611 0.00205887 
1 -0.0101041 0.0281938 0.011085 
1 -0.0203505 0.0230126 -0.0434381 
2 -0.00909513 0.00820205 -0.00387555 
1 0.015841 0.0262188 -0.0348773 
1 -0.0392126 0.0209341 0.0192845 
2 -0.00939257 0.00675219 -0.00189295 
1 -0.0361307 -0.00764451 -0.00884518 
1 -0.0137011 0.0199759 0.0271265 
2 -0.00248479 0.00140083 -0.0107224 
1 0.00934617 -0.0401166 0.000294645 
1 -0.0326658 0.0386558 0.0464223 
2 -0.00142777 -0.00827957 -0.00330146 
1 -0.030583 0.0478648 -0.0417094 
1 -0.0273255 -0.00621268 0.0413934 
2 0.00960297 0.00977556 0.011408 
1 0.0504197 0.0158796 0.0442058 
1 -0.00620087 0.0506649 0.0168118 
2 -0.00813241 0.0107662 -0.00640607 
1 0.0188856 -0.0142551 0.0321271 
1 -0.0165695 0.0453217 0.0114124 
2 0.0113565 0.0110937 0.0111273 
1 0.0385331 -0.0501715 0.0346271 
1 0.0259724 0.0482569 -0.0203106 
2 0.00522554 0.0114754 0.0110078 
1 0.0381204 -0.00800825 0.035349 
1 0.049935 -0.0225505 -0.0219976 
2 -0.0016996 0.00848085 -0.00658478 
1 -0.0423197 0.0372019 0.0348492 
1 -0.0385194 -0.0263702 0.024507 
2 -0.00197362 -0.0114931 0.00773852 
1 0.0439202 -0.0260763 0.0371653 
1 -0.00688796 -0.00302622 0.0250387 
2 -0.000268903 -0.00649419 -0.00783306 
1 0.0187009 -0.0389918 0.0226218 
1 0.0167098 -0.0469602 0.0241392 
2 -0.0083057 0.00934865 -0.00211187 
1 -0.0186379 -0.0303712 -0.000564216 
1 0.00280389 0.0194577 0.0419762 
2 -0.00465585 -0.0101418 -0.00244016 
1 -0.0375803 -0.0480949 0.0417246 
1 -0.0406743 -0.0177426 0.0164708 
2 -0.00434197 0.00998124 -0.00936932 
1 -0.0109296 0.00714358 -0.027022 
1 0.00780629 0.0437478 0.0358002 
2 0.0101251 0.000132431 0.00131208 
1 -0.033268 -0.0258554 -0.0472802 
1 0.0423274 -0.00983171 -0.0288082 
2 -0.0112966 0.00046193 0.000593668 
1 -0.00307827 -0.0126078 0.00935212 
1 0.00112438 0.0143481 -0.0391358 
2 0.0057018 0.00430323 0.00439756 
1 -0.0295763 0.0347777 0.0346516 
1 0.0271944 -0.0429031 -0.0339977 
2 -0.00820296 0.0100492 -0.000730428 
1 0.0102979 0.0492546 0.0197274 
1 0.0154689 0.032247 -0.0113089 
2 0.0104063 0.01229 -0.00188118 
1 0.0331012 -0.00688964 -0.0474546 
1 -0.0148746 0.00100477 0.040446 
2 0.00593947 0.00583889 0.00189873 
1 0.0433466 -0.0190573 -0.0151218 
1 -0.00535473 0.00665278 0.0368798 
2 0.00493997 0.00344735 -0.00580068 
1 0.0160562 -0.0513906 -0.0328383 
1 -0.0462168 0.015113 -0.0129759 
2 0.010174 -0.00117976 -0.00127677 
1 -0.0351933 0.0463929 -0.0474975 
1 -0.0175981 -0.00113071 -0.0339667 
2 -0.00602368 0.00521933 -0.00362346 
1 -0.0385054 0.00358224 0.0514777 
1 -0.0141862 -0.025744 -0.0223451 
2 0.000286629 0.00487584 -0.0062213 
1 -0.0273217 -0.0442553 0.0231265 
1 -0.0176347 -0.00144796 -0.0294296 
2 -0.00532052 -0.00109956 0.00706266 
1 0.0496995 0.0220393 0.0187154 
1 0.0433509 -0.0494246 -0.0359437 
2 -0.000165031 -0.0124687 -0.00581495 
1 -0.0162149 -0.0502173 -0.017582 
1 0.00591167 0.0149455 0.0456096 
2 -0.00369584 -0.00163159 0.00422182 
1 0.0059501 0.0451616 -0.0108397 
1 0.0230291 0.0452661 -9.44863e-05 
2 -0.000845615 0.0125736 -0.000950573 
1 0.0484868 -0.0395244 -0.000367481 
1 0.0252665 -0.0149477 -0.0119312 
2 0.0125342 -0.00631908 -0.00156351 
1 -0.0429244 0.0351198 0.0364166 
1 0.033449 -0.0105158 -0.0313303 
2 -0.0123777 -0.00846395 -0.0108974 
1 -0.00851747 0.0111076 -0.00806062 
1 0.0362121 0.0410723 0.0205025 
2 0.00289027 -0.00353948 0.0106205 
1 -0.0324992 -0.0346691 0.0144497 
1 -0.0168422 -0.0221117 -0.0360254 
2 -0.010126 -0.005526 0.00931738 
1 -0.0499482 0.00616548 -0.0455958 
1 0.0271434 0.0244877 0.0155977 
2 -0.00386876 0.00318681 -0.00529731 
1 -0.0446464 0.0340311 0.006823 
1 -0.0183901 0.0286364 -0.0428376 
2 -0.000426826 -0.00734109 0.00401064 
1 0.0286526 0.040359 0.0390963 
1 0.0169498 -0.0166024 -0.011023 
2 0.00566896 -0.00662619 -0.0108529 
1 -0.00564596 0.0379557 -0.0210731 
1 0.0324512 0.0498223 0.0169325 
2 0.0116594 0.00156815 -0.00660434 
1 -0.0174166 -0.0290345 -0.00959047 
1 -0.0193222 -0.0370715 -0.0315104 
2 0.00089919 -0.00418401 -0.0022863 
1 0.00120119 -0.0288887 -0.0223195 
1 0.0199418 -0.0164166 0.0328016 
2 0.00793994 0.00976308 0.00768427 
1 0.00352752 -0.0309764 -0.0125505 
1 0.00514458 -0.049093 -0.00526181 
2 -0.00715176 0.00558268 -0.00217163 
1 -0.0174904 -0.0393652 0.00726495 
1 0.0204088 0.0332305 -0.00446339 
2 0.012328 0.00707574 0.000461387 
1 -0.0341968 -0.0364964 -0.0122714 
1 -0.0241372 0.00818932 -0.00034381 
2 0.00349856 -0.00715987 0.0100363 
1 -0.0450793 0.0435039 0.0431637 
1 0.0293082 -0.0246155 -0.0408308 
2 -0.00926309 -0.00668186 0.00658252 
1 0.0239506 0.0361302 -0.0179403 
1 0.0382972 -0.0128338 0.00815154 
2 0.0104829 -0.0131008 0.00960567 
1 -0.04101 -0.0154943 0.038144 
1 0.0227354 0.0356567 0.0301792 
2 -0.00421754 -0.011077 -0.00518072 
1 -0.0378102 -0.0130497 -0.0289874 
1 0.0211211 -0.00285997 0.048379 
2 0.0104217 -0.0116059 -0.00791799 
1 -0.0234697 0.0407376 0.0392381 
1 0.0396754 -0.042687 0.00668649 
2 0.0123018 0.0041027 0.00887201 
1 -0.00577488 0.0264135 -0.0475569 
1 0.01127 -0.0329386 -0.047621 
2 -0.00981881 0.00450457 -0.0120728 
1 0.0093218 -0.0391884 0.00182662 
1 -0.0440762 -0.0303423 -0.028161 
2 -0.0114899 -0.00288159 -0.00941004 
1 0.033938 -0.00255329 -0.0313328 
1 0.0110031 -0.0037189 -0.0200108 
2 0.00790817 -0.00896522 -0.0118662 
1 -0.0101282 0.0336649 0.0103314 
1 0.0404576 -0.0331423 0.0186254 
2 -0.00799877 -0.00998798 0.00698817 
1 -0.0119535 0.039739 -0.0154951 
1 -0.0194594 0.01727 0.013284 
2 -0.00132379 -0.0123932 0.00113263 
1 -0.0411636 -0.0310206 -0.0365932 
1 -0.0388123 -0.0241702 -0.0478357 
2 0.0117868 0.00434498 0.0106362 
1 -0.00574775 -0.0306983 0.0442525 
1 -0.0423288 -0.0125261 0.0474844 
ITEM: TIMESTEP
4
ITEM: NUMBER OF ATOMS
192
ITEM: BOX BOUNDS pp pp pp
0.0000000000000000e+00 2.3470396999999998e+01
0.0000000000000000e+00 2.3470396999999998e+01
0.0000000000000000e+00 2.3470396999999998e+01
ITEM: ATOMS type vx vy vz 
2 0.00157998 0.00112108 0.00962309 
1 -0.0338248 0.0173576 0.0112028 
1 0.0254506 0.0516523 -0.0183656 
2 0.00362313 -0.00426412 -0.00881185 
1 0.00651725 -0.0305295 0.0190516 
1 0.0195851 -0.0548927 -0.019903 
2 -0.0046153 -0.00707188 0.000367128 
1 -0.00154122 -0.0321024 -0.048848 
1 0.00150188 0.0395875 -0.0268265 
2 0.0074405 0.00656125 -0.00829531 
1 0.0410047 0.0235552 0.0273626 
1 0.0553353 -0.0107776 0.0275971 
2 -0.00670929 -0.0107012 -0.00928189 
1 0.00928768 -0.0476829 0.0206544 
1 -0.0181417 -0.0254179 0.00837665 
2 -0.00221096 0.0111562 0.00735046 
1 0.0421101 -0.0330504 -0.0156665 
1 -0.0299881 0.016642 -0.0315004 
2 0.00369048 0.0100552 0.014261 
1 -0.0322642 0.0412719 0.0173502 
1 0.0403491 -0.0153229 0.0227394 
2 0.00682673 -0.00738908 0.00867974 
1 -0.0128376 -0.0178024 0.000536565 
1 -0.0016511 -0.022872 0.00618619 
2 -0.0011791 0.00393275 -0.00284072 
1 -0.0739894 0.00789746 0.00671801 
1 0.00626409 0.011209 0.0162956 
2 -0.00752937 -0.00403169 0.00552398 
1 -0.0403175 0.0125261 -0.00121411 
1 -0.0301828 -0.0219186 0.0204189 
2 -0.0027339 0.000315716 -0.00447354 
1 -0.0177196 -0.0390676 0.0155181 
1 -0.0280345 0.0367976 -0.0649246 
2 -0.00326659 0.00665538 0.000512283 
1 -0.00541897 -0.0245004 -0.00330855 
1 -0.0340008 0.00489281 -0.00406598 
2 -0.00841367 0.00819676 -0.00464454 
1 0.00227129 0.0287322 -0.0355902 
1 -0.0365191 0.0192597 0.0275452 
2 -0.0108838 0.00696742 0.00048694 
1 -0.0239647 -0.0177988 -0.00799671 
1 -0.0129531 0.0310922 -0.00709056 
2 -0.000321705 0.00418499 -0.00859103 
1 -0.0284436 -0.0488467 0.00333039 
1 -0.0190704 0.00117365 0.0107991 
2 -0.00195625 -0.00868204 -0.00490468 
1 -0.0307058 0.0462409 -0.0277214 
1 -0.0216607 -0.00389461 0.0587438 
2 0.0112594 0.0104532 0.0099251 
1 0.0370226 0.00418537 0.058384 
1 -0.028274 0.0416727 0.0379079 
2 -0.0078111 0.0119979 -0.00223472 
1 -0.00243974 -0.0426133 0.0133679 
1 -0.00425559 0.0704323 -0.0399399 
2 0.011117 0.0129737 0.0107547 
1 0.0298189 -0.0643541 0.0532382 
1 0.0290003 0.0285402 -0.0280652 
2 0.005811 0.0060341 0.00979433 
1 0.0784128 0.0256353 0.0418931 
1 -0.00479357 0.0191376 -0.0215214 
2 -0.00149349 0.00788427 -0.00497557 
1 -0.0614141 0.0418858 -1.99385e-05 
1 -0.0225637 -0.0231257 0.0397526 
2 -0.00301286 -0.00816501 0.00799616 
1 0.0381823 -0.0528002 0.0364434 
1 0.00920378 -0.0154775 0.0205287 
2 0.000541776 -0.00815543 -0.00748734 
1 0.0153755 -0.0339406 0.0152317 
1 0.016085 -0.0321617 0.0187308 
2 -0.0107446 0.00943734 -0.000702022 
1 -0.00700083 -0.017982 -0.00865522 
1 0.0239794 0.0123196 0.0135314 
2 -0.00944427 -0.00966048 -0.00330012 
1 -0.0172301 -0.0373483 0.0510947 
1 0.0107558 -0.0331594 0.0215352 
2 -0.00415235 0.00726719 -0.00959554 
1 0.0245731 0.0399712 -0.035877 
1 -0.016961 0.0510765 0.0251574 
2 0.0115472 -0.00271375 1.56093e-05 
1 -0.0353284 0.00901451 -0.0178094 
1 0.0258198 -0.0146464 -0.0438376 
2 -0.0103574 0.00112005 0.000938548 
1 -0.00782773 -0.022233 -0.00717975 
1 -0.00336516 0.0131955 -0.0303644 
2 0.0042904 0.00177024 0.00250057 
1 1.43489e-05 0.049828 0.0217417 
1 0.0167618 -0.0172964 0.0180339 
2 -0.00126572 0.00965555 -0.000207288 
1 -0.0441329 0.0210882 0.0107598 
1 -0.0443808 0.0531149 -0.0159069 
2 0.012137 0.011108 -0.00358671 
1 0.0219523 0.000211129 -0.0272734 
1 -0.0223977 0.00870816 0.0429561 
2 0.00494633 0.00551482 -0.000137822 
1 0.0298403 0.00597651 0.0494914 
1 0.024909 -0.00988019 0.0139952 
2 0.00388621 0.00385011 -0.00646798 
1 -0.00232911 -0.0356113 -0.040512 
1 -0.00922586 0.00165788 0.00925411 
2 0.0126254 0.00209277 -0.00256954 
1 -0.0159322 0.0028286 -0.0238477 
1 -0.0596206 -0.00468057 -0.0358153 
2 -0.00404166 0.00399495 -0.00131493 
1 -0.0496691 0.00461252 0.0546785 
1 -0.0346492 -0.0152553 -0.0394833 
2 0.00016426 0.00335409 -0.00607991 
1 -0.0358728 -0.0152896 0.0228288 
1 -0.0134131 -0.00925591 -0.0320732 
2 -0.00499924 -0.000578342 0.00588426 
1 0.0513369 0.0257681 0.0254019 
1 0.0467894 -0.0519974 -0.0272009 
2 0.000741087 -0.0143233 -0.00401465 
1 -0.0199286 -0.0348137 -0.0274372 
1 0.0245989 0.0381951 0.0216817 
2 -0.000188883 -0.000922855 0.00330631 
1 -0.0154857 0.0190921 -0.000773986 
1 -0.0080175 0.0608681 0.00217249 
2 -0.000336966 0.0136344 -0.00163381 
1 0.0395213 -0.0468716 0.0145822 
1 0.013178 -0.0233606 -0.00514292 
2 0.0148059 -0.00667015 -0.00123352 
1 -0.033973 0.0375161 0.0231721 
1 -0.00614867 -0.00380433 -0.0151598 
2 -0.0117066 -0.00753543 -0.00985909 
1 -0.0317798 -0.00527066 -0.0084211 
1 0.0371385 0.0469039 0.0171847 
2 0.0028298 -9.38166e-05 0.012087 
1 -0.0405828 -0.054719 0.00181716 
1 -0.0233111 -0.0512 -0.0419934 
2 -0.0103761 -0.00554513 0.00979271 
1 -0.0428763 0.0217257 -0.0435165 
1 0.0213442 0.0173378 0.0119708 
2 -0.0037203 0.00756349 -0.00791589 
1 -0.0419159 -0.0337221 0.0519248 
1 -0.0115869 0.0259111 -0.0418357 
2 -0.000708642 -0.00602689 0.00511387 
1 0.0332042 0.0432609 0.0114464 
1 0.00460776 -0.0228066 -0.0163167 
2 0.00437206 -0.00814154 -0.0113097 
1 0.0128422 0.0486164 -0.0127272 
1 0.0329915 0.0621709 0.0164446 
2 0.0123683 -0.00256148 -0.00456736 
1 -0.0303216 -0.0157357 -0.0314174 
1 -0.0163709 0.0163573 -0.0383095 
2 0.000785918 -0.00753592 -0.00329968 
1 0.00656295 4.07148e-05 -0.0137073 
1 0.029515 -0.0128166 0.0317978 
2 0.0116293 0.00716887 0.0088317 
1 0.000478231 -0.0280556 -0.0143198 
1 -0.0545567 0.00219868 -0.0181028 
2 -0.00571689 0.00615652 -0.000721003 
1 -0.0377007 -0.0381723 0.00512729 
1 0.0257045 0.0185306 -0.014391 
2 0.0130686 0.0043431 0.00107561 
1 -0.0199677 -0.00118899 -0.00946885 
1 -0.0367385 0.0187897 0.00187758 
2 0.00229965 -0.0117724 0.00852906 
1 -0.0233919 0.0878209 0.0498103 
1 0.0249999 -0.0162254 -0.0277412 
2 -0.00797967 -0.0068009 0.00464578 
1 0.00727358 0.0327928 0.0431143 
1 0.0438274 -0.0101709 -0.0215111 
2 0.0112378 -0.0109729 0.00820787 
1 -0.0343713 -0.0403667 0.0514134 
1 0.00899788 0.0274961 0.0236144 
2 -0.00187639 -0.0103045 -0.00344679 
1 -0.012996 -0.0225775 -0.0391761 
1 -0.0375533 -0.00534736 0.0431615 
2 0.00844578 -0.010166 -0.00526022 
1 -0.000510143 0.0388895 -0.0131689 
1 0.0405492 -0.0393431 0.0248266 
2 0.0106249 0.00415222 0.00870794 
1 0.0219908 0.0220309 -0.0413672 
1 0.0153837 -0.0244924 -0.0596621 
2 -0.0142341 0.000954825 -0.0133806 
1 0.0201889 -0.0106737 -0.0119744 
1 0.0210758 -0.00879624 0.00761579 
2 -0.00999006 -0.00523775 -0.0113611 
1 0.0184181 0.0298277 -0.0363903 
1 0.00247427 -0.00870331 -0.00814633 
2 0.00731053 -0.00713467 -0.0117736 
1 0.0191129 0.0146474 0.0193111 
1 0.0255072 -0.0571456 -8.00483e-06 
2 -0.00813481 -0.00916489 0.00610229 
1 -0.00269605 0.0354433 -0.00511973 
1 -0.0114246 0.0143049 0.00969937 
2 -0.00169233 -0.011724 0.00138617 
1 -0.0321885 -0.0422787 -0.0347213 
1 -0.0471131 -0.0314595 -0.0487256 
2 0.0114357 0.00300402 0.0108425 
1 -0.0349591 -0.0250353 0.0265219 
1 -0.0165967 -6.18272e-05 0.054192 
ITEM: TIMESTEP
8
ITEM: NUMBER OF ATOMS
192
ITEM: BOX BOUNDS pp pp pp
0.0000000000000000e+00 2.3470396999999998e+01
0.0000000000000000e+00 2.3470396999999998e+01
0.0000000000000000e+00 2.3470396999999998e+01
ITEM: ATOMS type vx vy vz 
2 0.00163877 -0.000442887 0.00806121 
1 -0.0390883 0.0470466 0.0214815 
1 0.0266989 0.0574574 0.00533845 
2 0.00357279 -0.00418264 -0.0104926 
1 -0.00098528 -0.028129 0.0219227 
1 0.0218852 -0.0523336 -0.0214735 
2 -0.00517952 -0.00742669 -0.000546838 
1 0.0365473 -0.0300541 -0.0537598 
1 -0.0296347 0.0413355 -0.0142607 
2 0.0110531 0.010328 -0.00524777 
1 0.0075032 -0.0391775 -0.0149078 
1 0.037455 -0.0149112 0.024937 
2 -0.0059161 -0.011265 -0.00668097 
1 -0.0262635 -0.0232394 -0.0307696 
1 0.00696145 -0.0398319 0.00386784 
2 -0.00121529 0.0112353 0.00541092 
1 0.0389976 -0.0373315 -0.00201277 
1 -0.0632604 0.0308182 0.00230554 
2 0.00354034 0.00914653 0.0146686 
1 -0.0331399 0.01437 0.00318877 
1 0.0187022 0.0241721 0.0335269 
2 0.00602461 -0.00631301 0.00725266 
1 0.000909846 -0.02327 0.0373441 
1 0.0118642 -0.0283913 -0.0154929 
2 -0.000346397 0.00189548 -0.00129115 
1 -0.069006 0.0231875 -0.0146691 
1 -0.0244148 0.0289364 0.0106534 
2 -0.00664428 -0.00316027 0.00499564 
1 -0.0626421 -0.0181849 0.0137344 
1 -0.0259702 -0.00969801 0.0219689 
2 -0.00221298 0.000765817 -0.00728285 
1 -0.0208041 -0.0218392 0.033301 
1 -0.04288 0.012083 -0.0261425 
2 -0.00304759 0.00782298 -0.00190315 
1 0.00450752 -0.0340058 0.00277221 
1 -0.0453809 -0.0131545 0.0315493 
2 -0.00740933 0.00870537 -0.00495141 
1 -0.00793732 0.0252468 -0.0338075 
1 -0.0396213 0.0142477 0.0271217 
2 -0.0122434 0.00746638 0.00173041 
1 -0.0155248 -0.0279478 -0.00361344 
1 -0.00880819 0.0355105 -0.0289934 
2 -0.00190167 0.00678069 -0.00507526 
1 -0.0165479 -0.0477181 -0.00612145 
1 0.00317554 -0.0423077 -0.0354836 
2 -0.00483021 -0.00671738 -0.00435617 
1 -0.0353209 0.0215841 -0.0333151 
1 0.0249847 -0.0133966 0.0641564 
2 0.0131603 0.0120163 0.0135771 
1 -0.00637031 -0.0201659 0.0392904 
1 -0.0256044 0.0326963 0.00932546 
2 -0.00699117 0.0139621 -0.00270422 
1 -0.0160681 -0.0537182 0.000988175 
1 -0.00597597 0.0651723 -0.031252 
2 0.0131687 0.0157637 0.00720342 
1 0.0245948 -0.0657602 0.0671891 
1 -0.00773355 -0.0195937 0.0154351 
2 0.010482 0.00490822 0.00964572 
1 0.0349083 -0.00425458 0.0321443 
1 -0.0350642 0.0551483 -0.0191038 
2 -0.0033487 0.00809845 -0.00596117 
1 -0.058221 0.0189037 0.0105321 
1 -0.00119381 -0.00494386 0.047723 
2 -0.00294689 -0.00644276 0.00869317 
1 0.0279066 -0.065082 0.0302281 
1 0.00834439 -0.0209341 0.00989878 
2 0.00352055 -0.012701 -0.00674118 
1 0.000401228 -0.0267597 0.00658415 
1 -0.00559302 0.0272425 0.00902536 
2 -0.0116185 0.0082711 0.000436089 
1 -0.00455435 0.00956194 -0.0258497 
1 0.0304886 0.00784226 -0.00467472 
2 -0.0120469 -0.0100833 -0.00393271 
1 0.00375516 -0.0148261 0.0640628 
1 0.0293759 -0.0456802 0.0203641 
2 -0.00412826 0.00975186 -0.00859478 
1 0.030264 0.0505221 -0.0563836 
1 -0.00817315 0.000332886 0.00873898 
2 0.0131015 -0.00653586 -0.00181136 
1 -0.0251219 0.0388134 0.0121159 
1 -0.00659589 0.000891808 -0.0512447 
2 -0.0101215 0.00100705 -0.000161939 
1 -0.0115073 -0.019107 -0.00866546 
1 0.000425985 0.011938 -0.0125288 
2 0.00385561 -0.000132719 0.000845922 
1 0.0173469 0.0548175 0.00525562 
1 0.00131107 0.00831717 0.0682802 
2 0.000948739 0.0124757 0.000435068 
1 -0.083509 -0.00559833 0.00181533 
1 -0.0420278 0.020461 -0.0249307 
2 0.0136394 0.00889985 -0.00622437 
1 0.0156528 0.00710003 0.0255886 
1 -0.0333986 0.0344575 0.0275132 
2 0.00564608 0.00542979 0.00117989 
1 0.012872 0.020011 0.0564089 
1 0.0305277 -0.0199843 -0.00727688 
2 0.00350612 0.00405336 -0.00701163 
1 -0.0316937 -0.0172518 -0.0440299 
1 0.0276491 -0.00981384 0.0252924 
2 0.0109535 0.00525217 -0.00437515 
1 0.0495042 -0.0487164 0.0103806 
1 -0.0823998 0.00503463 -0.0395653 
2 -0.00570901 0.0060924 -0.000364961 
1 -0.0335644 -0.0272536 0.0377964 
1 -0.0269034 -0.0227148 -0.0154773 
2 -1.5595e-05 0.00130304 -0.00681029 
1 -0.039067 0.0301173 0.0211115 
1 -0.0130924 -0.0279775 -0.0211306 
2 -0.00369145 -0.000177746 0.003563 
1 0.0450253 0.0154287 0.041548 
1 0.0384601 -0.0376869 -0.011253 
2 0.00117479 -0.0135307 -0.00412712 
1 -0.00283692 -0.0249195 -0.0253954 
1 0.0287752 0.0305737 0.0157961 
2 0.00133436 0.00490368 0.00327354 
1 -0.0389952 -0.00634902 0.010767 
1 -0.00528759 -0.00355239 -0.013209 
2 0.00024696 0.0124786 -0.00430323 
1 0.0220843 -0.0499048 0.0310834 
1 0.0109614 -0.00461233 0.0279129 
2 0.0152325 -0.00644905 0.000413089 
1 -0.0227506 0.0373699 -0.00318781 
1 -0.020701 -0.00278983 -0.00915406 
2 -0.0100875 -0.0065341 -0.00651427 
1 -0.0334564 -0.00843712 -0.00657933 
1 0.00392394 0.0342357 -0.0212841 
2 0.000933604 -0.000769284 0.0124385 
1 -0.0389347 -0.0497262 -0.000774103 
1 -0.0103367 -0.0409034 -0.0419866 
2 -0.0112713 -0.00680913 0.00729949 
1 -0.00243865 0.0650496 -0.0220105 
1 -0.0032462 -0.00203871 0.0330938 
2 -0.00457472 0.00647049 -0.00806763 
1 -0.0487784 -0.0171971 0.0325024 
1 0.0223107 0.025013 -0.0136631 
2 0.000987617 -0.00421342 0.00371535 
1 0.0235968 0.0217078 0.0113708 
1 -0.0245725 -0.0128602 -0.00919898 
2 0.00440282 -0.00578037 -0.0133099 
1 0.019561 0.046683 -0.00372214 
1 0.0254452 0.0240724 0.043815 
2 0.00979686 -0.00493226 -0.00524565 
1 -0.00169204 -0.0101289 -0.0180587 
1 -0.00357924 0.051568 -0.0383945 
2 0.00288852 -0.011456 -0.00272691 
1 0.0139001 0.0252336 -0.00457842 
1 0.00753307 0.00200416 0.0129793 
2 0.0119138 0.00438183 0.00774936 
1 0.0294956 -0.00274453 0.0190486 
1 -0.0925969 0.0309849 -0.0308361 
2 -0.00619227 0.00720147 0.00148055 
1 -0.0114318 -0.0441659 -0.00172267 
1 0.0145359 0.00251746 -0.0282366 
2 0.0109884 0.00192785 -0.000676678 
1 0.00516427 0.0576675 0.00280796 
1 -0.0163773 -0.00167747 0.0327719 
2 0.0036355 -0.0112169 0.00700889 
1 -0.00688731 0.0185236 0.0349287 
1 -0.0155407 0.0262673 0.00687474 
2 -0.00719328 -0.00660574 0.00503048 
1 0.00476132 0.0240048 0.0647526 
1 0.0436959 -0.0053432 -0.0430751 
2 0.0136906 -0.0101526 0.00900083 
1 -0.0319595 -0.0384751 0.0399596 
1 -0.0263672 0.0171867 0.00782387 
2 -0.000917832 -0.0113072 -0.00274708 
1 -0.0143808 -0.00815086 -0.027564 
1 -0.0503541 -0.00772446 0.0391385 
2 0.0077993 -0.00805865 -0.000855816 
1 0.0206759 0.0321068 -0.0642747 
1 0.0185283 -0.0441861 0.0141087 
2 0.00819055 0.00575536 0.00504033 
1 0.0657287 -0.00196228 0.00896237 
1 0.016357 -0.0214565 -0.0582646 
2 -0.0155908 -0.00203956 -0.0122793 
1 0.024257 0.0179952 -0.0269547 
1 0.0483179 0.00413518 0.00950734 
2 -0.0085757 -0.00687577 -0.0135359 
1 0.00684371 0.0512321 -0.0368261 
1 -0.00637784 -0.0133056 0.00561457 
2 0.00582056 -0.00703363 -0.0119849 
1 0.0453549 -0.0177828 0.0212725 
1 0.0244777 -0.0372517 -0.0089495 
2 -0.0091015 -0.00660752 0.00607839 
1 0.0096532 0.0106215 -0.010137 
1 0.00451997 0.00225989 0.0122094 
2 -0.00542003 -0.0123689 0.00216065 
1 0.00531984 -0.0586504 -0.0305853 
1 -0.0342979 -0.0113305 -0.056153 
2 0.0102493 0.00171854 0.0105155 
1 -0.0472144 -0.0212084 0.0208665 
1 0.00626432 0.0156292 0.0564864 
ITEM: TIMESTEP
12
ITEM: NUMBER OF ATOMS
192
ITEM: BOX BOUNDS pp pp pp
0.0000000000000000e+00 2.3470396999999998e+01
0.0000000000000000e+00 2.3470396999999998e+01
0.0000000000000000e+00 2.3470396999999998e+01
ITEM: ATOMS type vx vy vz 
2 0.00247192 -0.000586688 0.00668041 
1 -0.0424293 0.0637981 0.0200969 
1 0.0127106 0.0533175 0.0358567 
2 0.00347827 -0.00551044 -0.00945428 
1 -0.00898668 -0.0257806 0.000720153 
1 0.0263684 -0.0252205 -0.034808 
2 -0.00461332 -0.00684701 -0.000971346 
1 0.0348545 -0.0357114 -0.0523909 
1 -0.0401643 0.0370993 -0.0171825 
2 0.0129569 0.0106119 -0.00449429 
1 0.011394 -0.0434305 -0.0245702 
1 0.0071917 -0.0216446 0.0247501 
2 -0.00464475 -0.0120368 -0.00557147 
1 -0.0463217 -0.00911583 -0.0632245 
1 0.0103859 -0.0367773 0.00737311 
2 -0.000677405 0.00802182 0.00563678 
1 0.0280042 0.0110129 -0.00282805 
1 -0.0806505 0.0418155 0.0151919 
2 0.00278926 0.00863199 0.0151055 
1 -0.0288273 -0.0159454 -0.00940701 
1 0.00191328 0.0597697 0.0394799 
2 0.00691972 -0.00638001 0.00640021 
1 0.000726108 -0.0194005 0.0317583 
1 0.00482875 -0.0194367 -0.00697929 
2 -0.00502248 0.00344409 -0.000333837 
1 0.00121038 -0.0239707 -0.00262811 
1 -0.0308676 0.0538903 -0.0196535 
2 -0.00865913 -0.00479433 0.00519412 
1 -0.0487925 -0.0105211 0.0142533 
1 -0.0122609 0.00533633 0.0264816 
2 -0.00170832 0.00173082 -0.00922316 
1 -0.0187243 -0.0107339 0.016781 
1 -0.0581557 -0.0131831 0.0306539 
2 -0.00449062 0.00541269 -0.00165422 
1 0.0176772 0.00071962 0.0267009 
1 -0.035519 -0.0226683 0.00779468 
2 -0.00640257 0.00933924 -0.0050083 
1 -0.0105901 0.0193478 -0.025487 
1 -0.0435164 0.0042742 0.0201012 
2 -0.0127014 0.00809029 -0.000644219 
1 -0.0236375 -0.0290817 0.00972098 
1 -0.000381936 0.0282325 -0.00426026 
2 -0.00454398 0.00613819 -0.00408181 
1 0.0209775 -0.0425362 -0.020254 
1 0.0167588 -0.0373891 -0.0371286 
2 -0.00663321 -0.00550744 -0.00395138 
1 -0.0399574 0.00701645 -0.0299854 
1 0.0548487 -0.0187527 0.0627704 
2 0.0131701 0.0129603 0.0176306 
1 -0.0363377 -0.037531 0.0113996 
1 -0.0104554 0.0249735 -0.0222506 
2 -0.00706989 0.0151774 -0.00783705 
1 -0.00742015 -0.0296131 0.018732 
1 -0.0133723 0.0325355 0.0216576 
2 0.0126958 0.0154163 0.00569516 
1 0.0259076 -0.05611 0.0651985 
1 -0.0151397 -0.0297048 0.0361313 
2 0.0111882 0.00776263 0.0101737 
1 -0.0318255 -0.0471463 0.0218884 
1 0.0233833 0.0412489 -0.0255383 
2 -0.00481436 0.00967159 -0.00640618 
1 -0.0405875 -0.0108937 0.0399516 
1 -0.00455914 0.00130295 0.0259261 
2 -0.00250339 -0.00810569 0.00987848 
1 0.0284226 -0.0390275 0.0166076 
1 -0.010987 -0.0137332 -0.00810305 
2 0.00374403 -0.0141669 -0.00604292 
1 -0.00762193 -0.0140136 -0.00249485 
1 0.00631552 0.0336523 0.00424239 
2 -0.0106189 0.00658688 -0.000380178 
1 0.00068661 0.0338592 -0.0371311 
1 0.00720495 0.00920345 0.00665038 
2 -0.0100539 -0.00930227 -0.0030308 
1 0.00709722 -0.0223121 0.065957 
1 -0.00314517 -0.0454179 0.00726356 
2 -0.00206038 0.0137286 -0.00728855 
1 0.00274112 0.0256983 -0.0802383 
1 -0.00200904 -0.0401964 -0.00385632 
2 0.0120176 -0.00609917 -0.00208097 
1 -0.00507453 0.00122818 0.00586845 
1 -0.0111864 0.0139966 -0.0481762 
2 -0.0101867 0.000124716 -0.00259277 
1 -0.0100121 -0.00584307 0.00639278 
1 0.00511923 0.0127068 0.00789703 
2 0.00452354 0.00117402 0.00314944 
1 -0.010306 0.0422325 -0.00315168 
1 0.0121976 -0.00245167 0.0445692 
2 -0.00290075 0.013604 0.000458252 
1 -0.0711875 0.018723 0.0043097 
1 0.00753295 -0.0427177 -0.0372217 
2 0.0148471 0.00833414 -0.0068462 
1 0.00563665 0.00475968 0.0436012 
1 -0.0403999 0.0427571 0.0169646 
2 0.00868089 0.00583868 0.00670677 
1 0.005876 0.0105649 -0.0181061 
1 -0.0110681 -0.0170268 -0.0113921 
2 0.00404903 0.00252993 -0.00474655 
1 -0.0321944 -0.00200785 -0.0518572 
1 0.0193724 0.00754821 0.000874795 
2 0.0123324 0.0045706 -0.00394722 
1 0.0348601 -0.0352897 0.00581154 
1 -0.0732759 0.0124404 -0.0389206 
2 -0.00837752 0.00861028 -6.79594e-05 
1 -0.0130552 -0.0579254 0.013317 
1 -0.0068089 -0.0381919 0.0217938 
2 7.57135e-05 0.000818219 -0.00682016 
1 -0.0455612 0.0451804 0.0123055 
1 -0.00917125 -0.0409254 -0.0167839 
2 -0.00173725 -4.3449e-05 0.000704483 
1 0.0312318 0.00135602 0.0632391 
1 0.0232034 -0.0143627 0.00748988 
2 0.00202583 -0.0104801 -0.00627254 
1 0.0226952 -0.0176913 -0.0160605 
1 0.0167999 -0.00647147 0.0297593 
2 0.000317801 0.00775181 0.00304718 
1 -0.0172642 -0.000777393 0.0197111 
1 -0.00619874 -0.0520653 -0.0243839 
2 0.000677384 0.0116415 -0.00507428 
1 0.0147749 -0.0444604 0.0345316 
1 0.00280094 9.22564e-05 0.0414583 
2 0.012269 -0.00580764 0.00158335 
1 -0.00533247 0.0379128 -0.0161163 
1 0.00765501 -0.00996552 -0.0107829 
2 -0.00963031 -0.00620377 -0.00314834 
1 -0.00713816 0.00620004 -0.00784203 
1 -0.039829 0.0114781 -0.0603552 
2 -0.00135998 -0.00407008 0.0114818 
1 -0.0332616 -0.0233196 0.00779015 
1 0.00642474 -0.0107944 -0.0324151 
2 -0.0103389 -0.00625204 0.00694084 
1 -0.00355251 0.0690371 -0.0195274 
1 -0.0114472 -0.010748 0.0409128 
2 -0.00408819 0.00293052 -0.00474318 
1 -0.0527749 0.0427461 -0.0220609 
1 0.0342071 0.0198242 -0.00469214 
2 0.00271206 -0.001118 0.00170521 
1 0.0031715 -0.0123212 0.026768 
1 -0.0409432 -0.00835091 -0.00551287 
2 0.00714898 -0.00393139 -0.013305 
1 -0.00214627 0.0347416 -0.00406242 
1 0.00436205 0.00127006 0.048485 
2 0.00624642 -0.00328156 -0.00661554 
1 0.0421713 0.000470716 0.0109261 
1 0.0130543 0.0207132 -0.0401438 
2 0.00612848 -0.0131363 -0.000796782 
1 0.00983474 0.0187283 -0.0120095 
1 -0.0219621 0.0144729 -0.00969799 
2 0.0100969 0.0071616 0.00824668 
1 0.0451837 0.00161722 0.033345 
1 -0.0822643 -0.0109435 -0.0484833 
2 -0.00646421 0.00801853 0.00204683 
1 0.0086978 -0.0492317 -0.00079256 
1 0.00504472 -0.0106063 -0.022243 
2 0.0100082 0.00311924 -0.00126998 
1 0.0115943 0.047548 -0.00190336 
1 0.000716494 -0.0116943 0.0592507 
2 0.00302267 -0.00812481 0.00670396 
1 0.00811256 -0.0707512 0.0110385 
1 -0.0261776 0.0519361 0.0257563 
2 -0.00791858 -0.00557341 0.00797141 
1 0.0308071 0.0124968 0.0148256 
1 0.0411502 -0.00716241 -0.0292292 
2 0.0129934 -0.0112188 0.0107898 
1 -0.0311907 -0.0144736 0.0105138 
1 -0.0105449 0.021515 -0.00789317 
2 -0.00320454 -0.0126386 -0.00234565 
1 -0.0274709 0.00974294 -0.00794492 
1 -0.00162024 -0.00821231 0.0353905 
2 0.00991156 -0.00578713 0.00055946 
1 0.00217046 0.0131087 -0.0572419 
1 -0.00472847 -0.0444759 -0.00720353 
2 0.00936407 0.00705024 0.00226627 
1 0.0647806 -0.012285 0.0253134 
1 0.00378677 -0.0274055 -0.0345078 
2 -0.0121189 -0.00186212 -0.00994853 
1 0.0103503 0.0121725 -0.0237448 
1 0.0197846 0.00252992 -0.0295004 
2 -0.00888869 -0.00609458 -0.0144586 
1 0.0169795 0.041497 -0.0324837 
1 -0.00777631 -0.0211772 0.00282025 
2 0.00581734 -0.00983263 -0.0120847 
1 0.041508 -0.0290688 0.0181347 
1 0.0269946 0.00717954 -0.0132289 
2 -0.00979516 -0.00449065 0.00640744 
1 0.0231967 -0.0125677 -0.00816771 
1 0.0162014 -0.0065731 0.00227188 
2 -0.00748577 -0.0141309 0.00308353 
1 0.00806515 -0.0579059 -0.0246251 
1 -0.0143824 0.0125055 -0.0590843 
2 0.00872754 0.00217594 0.00979885 
1 -0.027714 -0.0255745 0.0416815 
1 0.00553368 0.0146582 0.0416513 
ITEM: TIMESTEP
16
ITEM: NUMBER OF ATOMS
192
ITEM: BOX BOUNDS pp pp pp
0.0000000000000000e+00 2.3470396999999998e+01
0.0000000000000000e+00 2.3470396999999998e+01
0.0000000000000000e+00 2.3470396999999998e+01
ITEM: ATOMS type vx vy vz 
2 0.00326227 0.00244658 0.00808655 
1 -0.0537412 0.0501079 0.0132599 
1 0.00842247 0.0283547 0.0264557 
2 0.00352266 -0.00689591 -0.00940705 
1 -0.0145546 -0.0141098 -0.0237141 
1 0.0295137 -0.00467964 -0.0244043 
2 -0.0034837 -0.00556194 -0.000623917 
1 -0.00375977 -0.0498277 -0.0434589 
1 -0.0223904 0.0294766 -0.0364269 
2 0.0111438 0.00694825 -0.00519948 
1 0.0413478 0.0100427 -0.00193951 
1 0.00605332 -0.0225852 0.0125538 
2 -0.00485412 -0.0111091 -0.0084173 
1 -0.0227789 -0.0334015 -0.0344978 
1 -0.00856937 -0.0174224 0.0197919 
2 -0.00116973 0.00516132 0.0087042 
1 0.014112 0.0568813 -0.00619151 
1 -0.0740272 0.0493902 -0.0156763 
2 -0.000845844 0.00877432 0.0166568 
1 -0.0219237 -0.0174141 -0.021022 
1 0.0301035 0.0556568 0.0282259 
2 0.00869917 -0.00717249 0.00662192 
1 -0.0113819 -0.010471 -0.00939568 
1 -0.00847969 -0.00705886 0.0174319 
2 -0.00857625 0.0039529 0.00121948 
1 0.0394132 -0.0452644 0.00208651 
1 -0.0224245 0.0693904 -0.0508907 
2 -0.0119796 -0.00831897 0.00594153 
1 -0.0128343 0.024287 0.00458686 
1 0.00136071 0.0213308 0.0281607 
2 -0.00350512 -3.91082e-05 -0.0061538 
1 -0.0132258 -0.00681377 -0.0173896 
1 -0.037395 0.0134039 0.0259555 
2 -0.00684492 0.00273847 0.000577795 
1 0.0295553 0.0244089 0.037068 
1 -0.0156033 -0.0205761 -0.0354586 
2 -0.00567069 0.00992212 -0.00514432 
1 -0.00762601 0.0148485 -0.0114077 
1 -0.0449136 -0.00859164 0.0111191 
2 -0.0129077 0.00853245 -0.00362086 
1 -0.0348722 -0.0255248 0.0221876 