ITEM: TIMESTEP
0
ITEM: NUMBER OF ATOMS
192
ITEM: BOX BOUNDS pp pp pp
0.0000000000000000e+00 1.2432000000000000e+01
0.0000000000000000e+00 1.2432000000000000e+01
0.0000000000000000e+00 1.2432000000000000e+01
ITEM: ATOMS type vx vy vz 
2 1.21656 1.16126 4.96896 
1 -6.79538 -0.898185 -6.73542 
1 -1.81784 22.8616 -0.624628 
2 1.80677 -3.34402 -2.62349 
1 7.77027 -14.8472 -1.09293 
1 10.2906 -15.2261 -16.3683 
2 -2.29011 -3.86538 0.300926 
1 -18.4901 -14.467 -20.6448 
1 17.996 20.2886 -16.4539 
2 4.25751 3.59393 -5.31937 
1 21.4112 15.5212 17.4972 
1 22.4891 -6.18272 23.3177 
2 -3.25868 -6.04511 -4.96268 
1 8.91346 -26.2621 16.5383 
1 -18.438 -8.55557 4.71915 
2 -1.20925 4.09658 4.41784 
1 21.4207 11.7965 -22.2682 
1 -4.28127 2.44202 -22.0087 
2 3.24375 5.45044 6.66402 
1 -15.8191 18.9399 16.7629 
1 9.72897 -5.50465 15.1153 
2 3.91881 -4.27877 4.80911 
1 -11.0643 -8.16244 -13.5184 
1 -10.9802 -6.24444 17.9314 
2 -2.59462 3.89421 -2.39836 
1 -15.731 -20.6589 19.7555 
1 17.5652 1.50022 6.91226 
2 -5.03073 -2.66478 3.26 
1 -5.69857 22.8708 -8.84921 
1 -11.0358 -17.5865 12.3288 
2 -1.1632 1.01884 -3.10548 
1 -5.34271 -24.2664 -3.40813 
1 -17.0152 9.8805 -19.6738 
2 -2.05863 1.41084 1.08951 
1 -5.34684 14.9195 5.86593 
1 -10.769 12.1777 -22.9865 
2 -4.81294 4.34034 -2.05085 
1 8.38269 13.8744 -18.4563 
1 -20.7504 11.0778 10.2049 
2 -4.97034 3.5731 -1.0017 
1 -19.1196 -4.0453 -4.68067 
1 -7.2503 10.5708 14.3547 
2 -1.31489 0.741288 -5.67407 
1 4.94578 -21.2288 0.15592 
1 -17.286 20.4558 24.5656 
2 -0.755542 -4.38136 -1.74706 
1 -16.1838 25.329 -22.0717 
1 -14.46 -3.28761 21.9044 
2 5.08167 5.173 6.03686 
1 26.6809 8.40315 23.3927 
1 -3.28136 26.8107 8.89642 
2 -4.30349 5.69722 -3.38995 
1 9.99381 -7.54346 17.0009 
1 -8.76819 23.9832 6.03921 
2 6.00961 5.87054 5.88834 
1 20.3908 -26.5496 18.3239 
1 13.744 25.5364 -10.7479 
2 2.76524 6.0725 5.82507 
1 20.1724 -4.23778 18.7059 
1 26.4245 -11.9332 -11.6406 
2 -0.899389 4.48787 -3.48452 
1 -22.3946 19.6864 18.4414 
1 -20.3836 -13.9545 12.9686 
2 -1.04439 -6.08188 4.09505 
1 23.2416 -13.799 19.667 
1 -3.64495 -1.60141 13.2499 
2 -0.142297 -3.43658 -4.14508 
1 9.89609 -20.6336 11.9709 
1 8.84245 -24.8503 12.7739 
2 -4.39519 4.94709 -1.11755 
1 -9.86274 -16.0718 -0.29857 
1 1.48375 10.2966 22.2128 
2 -2.46377 -5.36682 -1.29128 
1 -19.8866 -25.4507 22.0797 
1 -21.5239 -9.38899 8.71595 
2 -2.29767 5.28185 -4.95803 
1 -5.78372 3.78022 -14.2994 
1 4.13091 23.1503 18.9447 
2 5.35795 0.0700795 0.694321 
1 -17.6047 -13.6821 -25.0196 
1 22.3987 -5.20272 -15.2447 
2 -5.97791 0.244443 0.314156 
1 -1.62895 -6.67174 4.94893 
1 0.594999 7.59271 -20.7098 
2 3.01726 2.27717 2.32709 
1 -15.6511 18.4036 18.3368 
1 14.3906 -22.7033 -17.9908 
2 -4.34082 5.31781 -0.386526 
1 5.44944 26.0644 10.4393 
1 8.18577 17.0644 -5.9844 
2 5.50677 6.50359 -0.995479 
1 17.5164 -3.64584 -25.1119 
1 -7.8713 0.531703 21.4031 
2 3.14303 3.08981 1.00477 
1 22.938 -10.0847 -8.00213 
1 -2.8336 3.5205 19.516 
2 2.61412 1.82426 -3.06959 
1 8.49657 -27.1947 -17.3773 
1 -24.4569 7.99744 -6.86656 
2 5.38387 -0.6243 -0.675636 
1 -18.6235 24.5501 -25.1346 
1 -9.3125 -0.598347 -17.9744 
2 -3.18759 2.76195 -1.91745 
1 -20.3762 1.89564 27.2408 
1 -7.50701 -13.6232 -11.8245 
2 0.151678 2.58018 -3.29217 
1 -14.458 -23.4189 12.238 
1 -9.3319 -0.766229 -15.5735 
2 -2.8155 -0.581861 3.7374 
1 26.2998 11.6627 9.90377 
1 22.9403 -26.1544 -19.0206 
2 -0.0873307 -6.59817 -3.07714 
1 -8.58056 -26.5739 -9.30397 
1 3.12832 7.90881 24.1356 
2 -1.95575 -0.8634 2.23409 
1 3.14866 23.8985 -5.73613 
1 12.1865 23.9538 -0.05 
2 -0.44748 6.65368 -0.503022 
1 25.6581 -20.9154 -0.194463 
1 13.3704 -7.90997 -6.31372 
2 6.63279 -3.34391 -0.827372 
1 -22.7146 18.5846 19.2709 
1 17.7005 -5.5647 -16.5793 
2 -6.55002 -4.47893 -5.76668 
1 -4.50725 5.8779 -4.26549 
1 19.1626 21.7345 10.8495 
2 1.52947 -1.87301 5.62011 
1 -17.1978 -18.3461 7.64646 
1 -8.91249 -11.701 -19.0638 
2 -5.35843 -2.92424 4.93054 
1 -26.4314 3.26263 -24.1283 
1 14.3637 12.9583 8.25394 
2 -2.04726 1.68639 -2.80322 
1 -23.6258 18.0085 3.61058 
1 -9.73163 15.1537 -22.6687 
2 -0.225867 -3.88474 2.12234 
1 15.1623 21.3571 20.6889 
1 8.96943 -8.78562 -5.83312 
2 2.99989 -3.50643 -5.74313 
1 -2.98772 20.0853 -11.1514 
1 17.1724 26.3648 8.9603 
2 6.16991 0.829827 -3.49487 
1 -9.21645 -15.3644 -5.07506 
1 -10.2248 -19.6174 -16.6746 
2 0.475831 -2.21408 -1.20986 
1 0.635644 -15.2872 -11.811 
1 10.5527 -8.6873 17.3579 
2 4.20163 5.1664 4.06634 
1 1.86668 -16.392 -6.64144 
1 2.7224 -25.9789 -2.78443 
2 -3.78455 2.95423 -1.14918 
1 -9.25555 -20.8311 3.84445 
1 10.7999 17.5848 -2.36192 
2 6.52372 3.74432 0.244155 
1 -18.0962 -19.3131 -6.49373 
1 -12.7729 4.3336 -0.181936 
2 1.85136 -3.78884 5.31099 
1 -23.855 23.0213 22.8413 
1 15.5092 -13.026 -21.6067 
2 -4.90181 -3.53589 3.48332 
1 12.6741 19.1193 -9.49359 
1 20.266 -6.79133 4.31361 
2 5.54733 -6.93266 5.0831 
1 -21.7016 -8.19921 20.185 
1 12.0311 18.8687 15.9701 
2 -2.23182 -5.86167 -2.74152 
1 -20.0083 -6.90559 -15.3395 
1 11.1768 -1.51343 25.6011 
2 5.51494 -6.14159 -4.19002 
1 -12.4197 21.5574 20.7639 
1 20.9953 -22.589 3.53834 
2 6.50984 2.17106 4.69486 
1 -3.05594 13.9774 -25.166 
1 5.96385 -17.4304 -25.2 
2 -5.19589 2.38372 -6.38864 
1 4.93288 -20.7376 0.966604 
1 -23.3241 -16.0565 -14.9022 
2 -6.08022 -1.52487 -4.97958 
1 17.9592 -1.35115 -16.5806 
1 5.82259 -1.96796 -10.5892 
2 4.18482 -4.74419 -6.2793 
1 -5.35959 17.8147 5.46717 
1 21.4092 -17.5381 9.85612 
2 -4.23276 -5.28541 3.69798 
1 -6.32554 21.029 -8.19968 
1 -10.2975 9.1389 7.02961 
2 -0.700517 -6.5582 0.59936 
1 -21.7828 -16.4154 -19.3643 
1 -20.5386 -12.7903 -25.3136 
2 6.23732 2.29927 5.62844 
1 -3.04158 -16.2448 23.4174 
1 -22.3994 -6.62853 25.1276 
ITEM: TIMESTEP
4
ITEM: NUMBER OF ATOMS
192
ITEM: BOX BOUNDS pp pp pp
0.0000000000000000e+00 1.2432000000000000e+01
0.0000000000000000e+00 1.2432000000000000e+01
0.0000000000000000e+00 1.2432000000000000e+01
ITEM: ATOMS type vx vy vz 
2 0.837835 0.279322 4.83205 
1 -19.2149 9.7254 8.05578 
1 14.0369 28.5384 -10.8554 
2 2.17596 -2.25386 -4.92917 
1 2.6055 -16.5609 6.87484 
1 8.8035 -31.4455 -3.74733 
2 -2.6365 -4.00811 -0.0799667 
1 4.3764 -15.5358 -25.3925 
1 2.11567 26.0045 -12.5128 
2 3.79639 3.35609 -4.30844 
1 20.7234 11.3971 13.2599 
1 30.8867 -4.33415 14.9532 
2 -3.49224 -5.56664 -4.646 
1 3.27516 -23.7407 8.84144 
1 -8.10279 -14.3599 5.02961 
2 -1.22795 5.94501 3.89252 
1 24.348 -17.7407 -8.77757 
1 -15.7646 7.09829 -14.1947 
2 2.09586 5.70476 7.56758 
1 -16.5104 14.9459 10.2729 
1 21.4886 -5.98442 11.5526 
2 3.67867 -3.86786 4.7323 
1 -8.22946 -9.82261 -3.11088 
1 1.38081 -12.4767 1.60775 
2 -0.381298 1.88354 -1.38139 
1 -38.0621 6.0344 1.69138 
1 2.12826 5.07777 9.88328 
2 -3.97571 -1.74689 2.83489 
1 -22.4409 5.03325 -1.55062 
1 -12.0007 -13.6971 11.0968 
2 -1.49878 0.183095 -2.06383 
1 -8.53415 -18.2402 8.1237 
1 -14.0295 21.5207 -38.1738 
2 -1.81958 3.51637 0.29097 
1 -2.97882 -12.5904 -0.25093 
1 -20.9659 1.78968 -0.860671 
2 -4.66444 4.33776 -2.40789 
1 0.979223 14.61 -20.209 
1 -19.5849 10.9534 15.4376 
2 -5.73327 3.64016 0.367494 
1 -9.04617 -10.4324 -7.69724 
1 -6.28645 17.4728 -3.8808 
2 0.0594607 2.18062 -4.59359 
1 -17.1074 -25.5141 2.90307 
1 -11.2173 3.6285 7.7026 
2 -0.718877 -4.63535 -2.59069 
1 -18.964 26.3305 -15.4621 
1 -13.2887 -0.721822 28.8273 
2 5.99855 5.45927 5.24881 
1 15.3525 1.39933 30.1398 
1 -14.6899 22.5114 21.0501 
2 -3.89023 6.52652 -0.649218 
1 -3.3171 -24.9787 0.615681 
1 -4.28293 37.0072 -23.9982 
2 5.81967 6.70129 5.6474 
1 15.3115 -32.3818 29.3026 
1 14.6428 15.5721 -14.6546 
2 3.35859 2.92129 5.13901 
1 36.7421 13.6604 20.9679 
1 -0.991165 11.6646 -10.2056 
2 -0.657592 4.29901 -2.89113 
1 -33.2087 20.4309 3.81735 
1 -15.4818 -13.3658 23.775 
2 -1.50903 -4.29022 4.20724 
1 19.7194 -30.2869 17.1807 
1 5.36496 -10.7805 9.17013 
2 0.727912 -4.08584 -4.07438 
1 5.87989 -20.8257 10.0618 
1 5.61612 -18.192 8.50732 
2 -5.73481 4.9709 -0.241892 
1 -3.71479 -8.93965 -4.57088 
1 18.5592 3.80292 2.81331 
2 -5.10955 -5.19867 -1.67629 
1 -8.39391 -22.7934 27.8375 
1 5.03367 -15.9892 13.0966 
2 -2.18998 3.68716 -5.13306 
1 11.7812 18.694 -18.8803 
1 -7.82052 29.694 14.2688 
2 6.0693 -1.43335 0.0245742 
1 -18.5683 4.03876 -10.7944 
1 13.2143 -6.59482 -21.8919 
2 -5.42833 0.563098 0.67183 
1 -3.47664 -12.9348 -5.85057 
1 -2.78985 6.01792 -17.0729 
2 1.85721 0.872005 1.40646 
1 4.40069 27.9979 11.3339 
1 8.92621 -9.93834 8.68642 
2 -0.832353 4.92227 -0.140931 
1 -20.2342 10.6295 4.00892 
1 -20.9684 31.565 -7.60281 
2 6.20544 5.8095 -1.75497 
1 10.9287 -1.64767 -17.6316 
1 -10.571 5.23063 22.9443 
2 2.50975 2.95749 -0.41195 
1 16.8463 2.21237 26.4437 
1 14.442 -4.94535 9.88495 
2 2.08705 1.99098 -3.40001 
1 0.248524 -19.6981 -22.513 
1 -6.65072 2.31128 3.94355 
2 6.60086 1.00842 -1.45153 
1 -7.55424 7.92183 -13.2978 
1 -29.5273 -3.81936 -16.4236 
2 -2.08179 2.07618 -0.76457 
1 -27.5152 3.10167 29.7187 
1 -19.388 -5.78607 -22.3423 
2 -0.00415746 1.45608 -3.55819 
1 -16.0989 -4.27877 12.2277 
1 -7.43441 -4.52473 -13.916 
2 -2.46278 -0.358825 3.04237 
1 24.5307 16.4918 15.1227 
1 25.2006 -29.104 -14.9882 
2 0.326813 -7.50996 -2.13817 
1 -13.7859 -19.0152 -15.9616 
1 12.5228 19.5769 11.1057 
2 0.0324655 -0.705643 1.91806 
1 -8.44162 8.61897 -0.442716 
1 -5.72991 35.2798 0.988396 
2 0.033433 7.48865 -0.79464 
1 18.2384 -25.5456 7.15938 
1 6.38131 -15.0167 -5.31779 
2 7.85124 -3.63687 -0.562651 
1 -20.3649 19.5415 11.8213 
1 0.172978 -1.31238 -9.45905 
2 -6.0905 -4.06751 -4.92773 
1 -16.5508 0.240585 -4.36685 
1 17.9784 25.2015 6.11619 
2 1.27585 -0.126712 6.46074 
1 -21.3525 -28.1804 -0.878341 
1 -8.43866 -25.2995 -23.9297 
2 -5.75775 -3.32492 4.84245 
1 -18.577 17.4653 -20.0417 
1 10.8797 8.12455 7.44552 
2 -1.93043 4.2933 -4.19737 
1 -24.477 -20.032 27.764 
1 -6.76176 11.7203 -21.7069 
2 -0.440155 -3.269 2.85833 
1 16.3396 22.0073 6.37685 
1 2.10156 -13.633 -10.5704 
2 2.51508 -4.46887 -5.49134 
1 7.00718 24.3265 -6.84657 
1 13.4583 38.8364 2.53748 
2 6.21967 -1.4493 -2.72301 
1 -10.2157 -8.74231 -13.3941 
1 -6.85108 12.3598 -19.0379 
2 0.36696 -3.67428 -1.39136 
1 2.20369 -3.79245 -11.439 
1 15.0929 -6.32436 16.2349 
2 6.33372 3.52494 4.72393 
1 -2.6829 -13.6325 -9.2351 
1 -31.3314 6.76885 -9.55753 
2 -3.30546 3.24599 -0.182108 
1 -20.0233 -21.8637 2.00135 
1 14.3888 10.0163 -7.06557 
2 7.12299 2.31934 0.657629 
1 -13.2204 1.06522 -4.67333 
1 -21.4952 7.67419 1.09678 
2 1.34407 -6.06336 4.55869 
1 -14.2398 46.3003 25.0154 
1 12.9003 -7.15564 -15.5457 
2 -3.97044 -3.63875 2.42253 
1 2.40263 18.1479 23.1327 
1 23.0807 -6.50097 -8.69969 
2 6.09557 -5.7698 4.55911 
1 -20.9172 -20.4792 24.6365 
1 6.51068 15.4143 14.0385 
2 -0.958126 -5.21048 -1.84271 
1 -10.7555 -11.7074 -21.4187 
1 -19.3211 -2.52519 22.5406 
2 4.62485 -5.49416 -2.9066 
1 0.523148 21.1309 -4.72187 
1 21.6483 -19.0175 13.556 
2 5.6081 2.17189 4.72544 
1 10.198 11.9994 -21.8928 
1 7.43029 -12.4503 -30.8326 
2 -7.65007 0.394697 -6.97092 
1 11.433 -3.961 -6.14849 
1 10.5833 -4.71247 3.44047 
2 -5.32825 -2.79867 -5.78136 
1 9.62221 19.3919 -18.4803 
1 2.05813 -4.76335 -5.55868 
2 3.55191 -3.73708 -6.12598 
1 11.4355 5.90509 9.48444 
1 14.8296 -29.7598 0.905509 
2 -4.46528 -4.90571 2.96745 
1 -3.48095 19.6427 -2.27444 
1 -1.88337 4.4786 10.6654 
2 -1.18924 -6.3931 0.703001 
1 -14.6736 -19.5052 -18.7503 
1 -24.1873 -17.4702 -27.4684 
2 6.31866 1.39172 5.69682 
1 -21.0339 -12.9584 11.3589 
1 -5.23478 2.57759 31.2553 
ITEM: TIMESTEP
8
ITEM: NUMBER OF ATOMS
192
ITEM: BOX BOUNDS pp pp pp
0.0000000000000000e+00 1.2432000000000000e+01
0.0000000000000000e+00 1.2432000000000000e+01
0.0000000000000000e+00 1.2432000000000000e+01
ITEM: ATOMS type vx vy vz 
2 0.749866 -0.707355 3.89073 
1 -21.1322 27.3031 12.129 
1 13.5922 30.7342 1.17931 
2 2.36247 -2.66748 -5.75744 
1 -1.12228 -14.4806 7.98297 
1 8.64578 -26.3885 -5.42322 
2 -2.71151 -4.17979 -0.724799 
1 21.8853 -15.0579 -27.2775 
1 -12.1249 30.9099 -5.12226 
2 5.62243 5.08427 -2.72205 
1 3.67475 -19.6878 -8.94535 
1 19.5471 -6.33787 14.6172 
2 -3.00041 -5.70451 -3.068 
1 -14.5588 -11.2918 -17.8189 
1 4.4961 -21.6996 3.17072 
2 -0.743655 5.98038 3.09905 
1 23.344 -19.8571 -1.13663 
1 -30.9897 14.1902 2.74843 
2 2.08487 5.13754 7.84947 
1 -15.3988 5.20781 3.68831 
1 14.1488 12.5618 16.5839 
2 3.28084 -3.32957 3.69345 
1 -0.226725 -13.3879 17.9794 
1 8.35942 -13.446 -9.37013 
2 -0.0454255 0.596858 -0.231319 
1 -32.1044 14.2083 -10.8903 
1 -12.9289 14.5385 5.84832 
2 -3.33885 -1.10442 2.57523 
1 -34.9113 -9.905 4.34997 
1 -11.6549 -7.62206 9.29763 
2 -1.06396 0.746097 -3.74436 
1 -7.55139 -5.85345 15.0903 
1 -25.15 4.14793 -11.7656 
2 -1.71362 4.22414 -0.68718 
1 1.80152 -19.329 2.8597 
1 -28.9825 -7.37585 16.1694 
2 -4.25668 4.49598 -2.55174 
1 -5.25815 12.317 -19.0195 
1 -21.3699 10.8831 15.6977 
2 -6.05587 3.68665 0.738101 
1 -7.89931 -13.774 -3.7954 
1 -2.76842 20.45 -13.6614 
2 -0.48158 3.63233 -2.62188 
1 -15.1881 -23.5612 -0.951886 
1 1.26693 -19.1606 -16.6905 
2 -2.02175 -3.70766 -2.39673 
1 -22.4831 14.853 -18.8077 
1 8.15427 -3.5968 30.9886 
2 6.6893 6.09202 7.06185 
1 -6.28538 -10.1606 24.1773 
1 -11.9107 18.3857 4.24327 
2 -3.50973 7.50103 -1.04855 
1 -9.15538 -27.8539 -3.27882 
1 -7.06758 31.883 -17.9811 
2 6.87512 8.09332 3.84284 
1 13.3341 -34.078 33.6311 
1 -4.08553 -9.72493 9.94347 
2 5.8596 1.92485 4.99209 
1 14.4171 1.13312 15.7146 
1 -17.9991 32.0946 -7.30649 
2 -1.4048 4.35871 -3.3733 
1 -33.5155 10.0743 7.59503 
1 -5.83998 -5.48767 30.7183 
2 -1.31957 -3.80051 4.56649 
1 16.7926 -36.9552 12.1775 
1 2.90466 -12.2671 0.799371 
2 2.47178 -6.52433 -3.82673 
1 -2.34477 -17.5889 7.60573 
1 -8.42233 13.8629 1.44925 
2 -5.59126 4.12536 0.104158 
1 -3.61758 7.64517 -13.8782 
1 22.1637 1.21946 -3.57629 
2 -6.5934 -5.65357 -2.01324 
1 4.90954 -10.6134 36.769 
1 12.2003 -21.9745 13.2091 
2 -2.25574 4.99076 -4.56034 
1 10.4551 21.7914 -26.1471 
1 0.365934 0.834943 5.907 
2 6.7122 -3.54839 -0.986592 
1 -12.4543 21.3512 5.91217 
1 -3.09285 2.18778 -24.3785 
2 -5.40742 0.520916 0.0386005 
1 -3.54551 -11.4136 -5.83526 
1 -0.376861 2.88403 -8.42375 
2 1.65477 -0.0245234 0.486885 
1 10.9582 28.2849 3.61183 
1 -0.126448 2.48784 35.3271 
2 0.13112 6.35422 0.141591 
1 -40.4545 -2.54593 -1.80043 
1 -15.6011 13.3148 -11.5806 
2 6.79059 4.51473 -3.33254 
1 5.46882 -0.0680555 11.348 
1 -15.3784 18.2358 16.1786 
2 2.94725 2.93626 0.107019 
1 8.69405 7.9696 30.0547 
1 15.1561 -10.3627 1.56383 
2 1.93063 2.17184 -3.84638 
1 -15.327 -10.2322 -24.5766 
1 11.6863 -3.6408 13.6705 
2 5.51083 2.51478 -2.50022 
1 29.4756 -16.6947 6.3383 
1 -40.5491 4.76832 -17.6306 
2 -3.27729 3.45647 -0.573774 
1 -16.0618 -18.1399 18.9056 
1 -13.3521 -8.7156 -7.59999 
2 -0.149998 0.271141 -3.98856 
1 -16.2512 19.4238 11.2298 
1 -6.49188 -11.6097 -8.76903 
2 -1.82721 0.00877602 1.97487 
1 21.8307 8.76137 22.556 
1 21.5052 -21.9829 -6.56707 
2 0.11282 -6.9351 -2.2972 
1 -3.25575 -16.1585 -14.0722 
1 14.5163 14.0741 6.48012 
2 0.866797 2.39547 2.13543 
1 -19.5023 -5.04836 5.84988 
1 -3.31209 -1.74943 -8.3977 
2 0.193135 6.92119 -2.20684 
1 9.31492 -28.4481 14.3137 
1 5.79298 -5.10505 12.6336 
2 8.33008 -3.71482 0.324919 
1 -16.1184 18.5058 -1.91337 
1 -7.80099 0.408915 -7.62628 
2 -5.0549 -3.48559 -2.87852 
1 -17.8275 0.540777 -2.55032 
1 -2.76789 17.6653 -21.3009 
2 0.36683 -0.393086 6.52459 
1 -21.771 -24.8392 -1.02997 
1 -0.237443 -22.0403 -24.954 
2 -6.0639 -3.87448 3.60332 
1 -1.18105 39.4485 -10.3214 
1 -2.49179 -2.69574 19.3765 
2 -2.37233 3.74813 -4.20595 
1 -29.805 -8.774 14.4043 
1 10.7828 10.0923 -6.16197 
2 0.586497 -2.39576 2.20766 
1 9.16608 9.31374 7.03534 
1 -16.4718 -6.78897 -7.7402 
2 2.68412 -2.50638 -6.73423 
1 10.5726 22.7366 -2.30171 
1 7.66511 11.9426 20.6172 
2 5.03542 -2.46208 -2.9008 
1 5.36198 -5.82985 -8.45244 
1 -0.51252 29.1022 -19.9033 
2 1.40312 -5.93899 -1.00147 
1 8.6316 12.9085 -6.37004 
1 -3.2073 2.65767 2.62817 
2 6.29969 1.84317 3.98389 
1 14.5197 3.13367 9.54773 
1 -50.6704 23.4201 -16.4903 
2 -3.56615 3.8062 1.14474 
1 -9.16365 -25.6081 -1.33148 
1 8.63402 1.97722 -15.3103 
2 6.22649 1.16742 -0.174092 
1 -2.40196 32.1266 2.52358 
1 -12.0458 -4.71073 16.9561 
2 2.1448 -5.8442 3.75624 
1 -7.12753 13.778 14.4913 
1 -9.9187 16.5028 1.77942 
2 -3.33272 -3.67573 2.77741 
1 1.13258 13.724 33.5023 
1 19.936 -3.33399 -21.2597 
2 7.47997 -5.18742 4.99064 
1 -21.4996 -19.3827 18.5925 
1 -11.9629 10.818 7.46008 
2 -0.618366 -5.44862 -1.59748 
1 -12.7903 -6.12803 -15.4216 
1 -25.4839 -2.82849 20.6661 
2 4.57556 -4.24123 -0.440397 
1 12.9494 17.7507 -30.9887 
1 9.19581 -20.6962 5.98683 
2 4.18119 3.02907 2.83847 
1 33.6346 -0.618805 5.37471 
1 7.42068 -10.573 -29.7104 
2 -8.44731 -1.16873 -6.42627 
1 13.7733 9.96131 -12.5794 
1 25.2465 2.13123 4.66692 
2 -4.70014 -3.53701 -6.86399 
1 4.81075 30.7118 -17.0587 
1 -2.59444 -7.50073 2.57834 
2 2.80773 -3.59289 -6.1071 
1 25.7941 -12.9529 9.70684 
1 13.3904 -20.458 -3.43568 
2 -4.77 -3.60408 3.33171 
1 2.04968 4.53464 -6.75536 
1 5.84205 -1.32078 8.28873 
2 -3.33618 -6.8993 1.07452 
1 5.01819 -26.1618 -16.7075 
1 -18.0245 -7.4114 -33.0439 
2 5.94335 0.855156 5.51903 
1 -26.4944 -10.0981 8.71978 
1 5.92083 9.24835 31.073 
ITEM: TIMESTEP
12
ITEM: NUMBER OF ATOMS
192
ITEM: BOX BOUNDS pp pp pp
0.0000000000000000e+00 1.2432000000000000e+01
0.0000000000000000e+00 1.2432000000000000e+01
0.0000000000000000e+00 1.2432000000000000e+01
ITEM: ATOMS type vx vy vz 
2 1.28313 -0.725408 3.10322 
1 -23.6258 35.2972 8.67931 
1 5.30102 26.9225 18.1031 
2 2.40981 -4.11738 -4.89435 
1 -4.85508 -11.2141 1.16902 
1 10.1908 -3.78503 -21.3152 
2 -2.02102 -3.57902 -0.692791 
1 12.0553 -20.8985 -26.9666 
1 -12.7867 29.9039 -8.50834 
2 6.68978 5.13038 -2.24253 
1 4.54496 -22.2513 -14.2878 
1 2.23969 -8.71938 15.4388 
2 -2.32087 -5.92473 -2.40262 
1 -22.7983 -5.04234 -33.5783 
1 4.97331 -18.6188 6.09976 
2 -0.472004 4.13719 3.60373 
1 16.6798 7.79347 -0.345948 
1 -37.5977 21.684 5.75556 
2 2.03723 4.36569 8.09797 
1 -11.2193 -3.8661 -2.74585 
1 3.17519 32.2996 21.3022 
2 3.78013 -3.45103 2.64587 
1 2.3776 -13.403 22.0637 
1 3.36553 -6.2749 -4.3013 
2 -2.60782 1.35488 0.546854 
1 7.43936 -11.4736 -4.28815 
1 -14.87 26.3616 -10.0669 
2 -4.3015 -1.933 2.66379 
1 -27.0094 -2.81082 3.32833 
1 -7.8373 1.03541 9.29484 
2 -0.686957 1.39929 -4.6009 
1 -4.85903 1.28752 4.25863 
1 -35.4497 -10.0286 18.7158 
2 -2.41567 3.06557 -0.412594 
1 8.15603 -2.15053 15.5782 
1 -24.8437 -12.4071 2.5074 
2 -3.85248 4.73087 -2.7183 
1 -6.91916 10.7492 -12.451 
1 -23.7745 8.59401 12.9689 
2 -5.85567 3.77582 -0.826624 
1 -16.5631 -11.6116 5.12392 
1 2.69599 16.7742 0.776603 
2 -2.29308 3.67599 -1.54308 
1 9.05955 -19.4899 -9.7597 
1 10.2657 -22.4529 -22.8113 
2 -3.2975 -3.04843 -2.11186 
1 -24.7977 5.75088 -18.5196 
1 27.5264 -6.52247 30.7516 
2 6.44398 6.46544 9.07259 
1 -20.1502 -18.1278 12.8242 
1 -2.93668 15.424 -11.9914 
2 -3.86742 7.79942 -4.30603 
1 0.017426 -7.57147 17.2916 
1 -10.2118 14.1028 8.74604 
2 6.61233 7.88787 3.22963 
1 13.8517 -31.5079 31.7688 
1 -3.94449 -14.9307 18.1125 
2 6.01521 3.31621 5.30638 
1 -17.9767 -19.6883 9.47116 
1 12.1853 23.645 -10.7829 
2 -2.07746 4.92876 -3.50489 
1 -25.5734 -2.01563 18.79 
1 -6.72251 -3.47151 21.7426 
2 -0.919352 -5.11174 5.14146 
1 18.902 -22.9429 4.06526 
1 -9.28636 -6.56163 -10.4872 
2 2.15116 -7.2012 -3.77218 
1 -3.00826 -8.96392 4.97491 
1 0.316745 13.1963 -1.90458 
2 -4.18568 3.14663 -1.09549 
1 0.133339 20.0367 -19.4789 
1 3.53056 4.46586 13.3644 
2 -5.7193 -5.56651 -1.58702 
1 9.50362 -12.166 39.7377 
1 -5.64665 -21.9639 7.14698 
2 -1.36484 6.79215 -3.818 
1 -3.95689 10.2494 -35.0755 
1 5.47566 -23.0916 -1.63606 
2 5.94633 -3.3279 -1.16363 
1 -2.18318 3.92896 3.63133 
1 -2.30651 8.78321 -21.2504 
2 -5.50385 -0.0138345 -1.43824 
1 -1.22968 -3.36272 5.12043 
1 0.506081 1.17174 1.76899 
2 2.30247 0.713122 1.40404 
1 -7.84716 17.4446 0.178749 
1 2.72066 -3.25765 26.7474 
2 -1.68524 7.00797 0.127113 
1 -37.9598 9.41417 -1.95833 
1 9.97536 -19.7469 -17.7208 
2 7.30686 4.01615 -4.03323 
1 -1.13314 -2.97011 24.9378 
1 -18.5556 22.4645 11.384 
2 4.56383 3.30908 3.1317 
1 3.49598 1.6113 -11.2353 
1 -6.51497 -10.632 -0.982208 
2 2.25375 1.65541 -3.10903 
1 -19.7236 -1.80615 -27.4591 
1 10.2296 3.80448 4.92423 
2 6.28159 2.30152 -2.52792 
1 23.9114 -14.0694 8.21586 
1 -39.6254 14.5838 -18.0763 
2 -4.85275 4.90691 -0.802321 
1 -5.16381 -34.6416 5.57708 
1 -0.561689 -16.3393 14.3657 
2 -0.0523626 0.371466 -3.85338 
1 -19.921 21.3748 4.5977 
1 -3.75899 -16.3796 -8.28923 
2 -0.924995 0.353014 0.685381 
1 17.9388 -5.73959 32.4218 
1 14.0268 -7.70862 2.13184 
2 -0.00782808 -5.28189 -3.41371 
1 13.2062 -13.6574 -7.22212 
1 8.59163 -5.82884 11.9626 
2 0.353606 3.95079 2.29601 
1 -5.48414 -1.21447 10.7817 
1 -3.85064 -31.7085 -16.1313 
2 -0.00370014 6.29303 -2.84814 
1 7.28875 -26.5073 15.5593 
1 3.32576 0.192856 23.3635 
2 7.0332 -3.56014 0.895692 
1 -6.6874 17.2943 -6.89741 
1 6.95699 -2.24593 -10.5642 
2 -4.83453 -3.26797 -1.49317 
1 -7.06452 7.84196 -1.24745 
1 -23.6605 7.61076 -39.9991 
2 -0.578741 -1.89552 5.82568 
1 -19.5998 -10.3053 4.06921 
1 5.36826 -12.4941 -18.704 
2 -5.38053 -3.30424 3.89933 
1 -9.64853 35.1621 -13.2345 
1 -4.29534 -6.60285 19.4548 
2 -2.25865 1.90813 -2.58809 
1 -32.2841 23.6742 -15.7028 
1 17.8905 7.03676 -0.176253 
2 1.4636 -0.825324 1.39013 
1 -2.76811 -8.07888 13.5365 
1 -25.7106 -3.49105 -7.09601 
2 4.19932 -0.750061 -7.0796 
1 -0.47767 17.0101 -2.84072 
1 -4.08704 -7.83888 28.6104 
2 3.74372 -1.09656 -3.07165 
1 22.8754 0.847896 -0.11442 
1 6.35932 6.44661 -23.9605 
2 2.47597 -7.05304 -0.324874 
1 9.92574 15.0461 -7.18232 
1 -18.0076 7.88061 -9.17567 
2 4.9488 3.94633 4.3738 
1 24.1004 6.81633 17.0132 
1 -38.305 -9.31271 -28.1833 
2 -3.86214 4.28467 1.5561 
1 2.55565 -28.7183 0.0502086 
1 3.29447 -3.90892 -13.2365 
2 5.80034 1.82478 -0.476969 
1 0.483486 25.3336 0.726786 
1 -4.14486 -9.75032 30.6924 
2 1.63319 -4.17102 3.76449 
1 0.325857 -30.0049 -0.0309987 
1 -13.9893 29.097 8.48153 
2 -3.65811 -3.2162 4.54188 
1 16.6082 6.31199 7.19492 
1 16.1061 -4.48802 -17.4464 
2 7.22101 -5.49363 5.78797 
1 -19.7576 -8.1503 6.66569 
1 -8.44512 13.3345 -0.296151 
2 -2.07606 -6.02843 -1.48795 
1 -18.7716 1.50803 -5.60824 
1 -0.491555 -1.3229 17.4112 
2 6.03597 -2.76017 0.623035 
1 3.63863 7.27055 -27.2759 
1 -4.50321 -21.622 -8.45917 
2 4.47347 3.74479 1.455 
1 34.8351 -6.85956 15.6456 
1 2.26219 -13.6884 -17.2902 
2 -6.5437 -0.874503 -5.16151 
1 6.298 2.81723 -8.04709 
1 9.01733 1.04367 -16.4352 
2 -5.16191 -2.84909 -7.29922 
1 15.0288 20.762 -14.008 
1 -4.20606 -11.1515 1.40049 
2 3.23239 -5.29389 -6.12475 
1 20.2527 -16.9108 7.45273 
1 14.1693 3.97917 -3.89895 
2 -4.7162 -2.72145 3.98446 
1 7.85093 -8.32292 -6.87208 
1 8.46576 -3.26823 -3.35993 
2 -4.51969 -8.04989 1.46027 
1 5.06112 -24.6245 -13.4693 
1 -9.10517 4.83053 -36.3498 
2 5.39974 1.65943 5.15979 
1 -13.1031 -12.6878 22.6809 
1 0.329911 2.04594 18.5391 
ITEM: TIMESTEP
16
ITEM: NUMBER OF ATOMS
192
ITEM: BOX BOUNDS pp pp pp
0.0000000000000000e+00 1.2432000000000000e+01
0.0000000000000000e+00 1.2432000000000000e+01
0.0000000000000000e+00 1.2432000000000000e+01
ITEM: ATOMS type vx vy vz 
2 1.90625 1.02611 3.79706 
1 -31.633 24.0257 4.19511 
1 4.45544 14.0496 13.1559 
2 2.45371 -4.86013 -4.96198 
1 -8.14664 -5.78862 -7.68496 
1 10.4 7.46956 -17.1164 
2 -1.59481 -2.75518 -0.274465 
1 -6.01749 -28.0032 -24.1608 
1 -2.91093 26.2965 -18.2853 
2 5.72401 3.1932 -2.39872 
1 20.242 4.89138 -2.34136 
1 2.6023 -8.26652 8.87111 
2 -2.5879 -5.14396 -4.01595 
1 -6.52613 -19.971 -15.4396 
1 -4.54683 -8.03735 13.4353 
2 -0.624428 2.44423 5.16004 
1 7.76097 33.4283 -0.234689 
1 -34.7788 28.3743 -8.90483 
2 0.715432 4.10386 8.84536 
1 -6.4091 -5.23952 -9.05261 
1 9.82677 35.1839 17.9519 
2 4.82862 -4.00033 2.73321 
1 -4.39542 -9.14661 0.471364 
1 -4.89439 2.6227 8.63989 
2 -4.34311 1.60468 1.47458 
1 26.3001 -22.4864 -0.1577 
1 -9.36568 32.0196 -24.8128 
2 -6.17854 -3.50909 2.86018 
1 -3.21899 17.8091 -0.760549 
1 -3.53704 8.18007 10.6051 
2 -1.64263 0.51969 -2.43856 
1 -4.04429 2.21542 -13.6071 
1 -23.6097 6.75826 10.7518 
2 -3.63027 1.55502 0.768868 
1 14.4927 13.4857 22.8013 
1 -13.4988 -10.9567 -20.886 
2 -3.57503 5.15173 -2.9926 
1 -5.10006 9.32549 -3.11572 
1 -23.2871 2.50474 10.3406 
2 -5.92052 3.99749 -2.09037 
1 -19.6417 -10.8056 8.42787 
1 6.41933 13.3633 15.836 
2 -2.41931 1.4475 -3.19382 
1 14.4109 -14.7955 -11.5862 
1 11.0698 9.7001 6.95348 
2 -3.47294 -3.44989 -2.75606 
1 -24.2895 6.15027 -5.40488 
1 26.6399 -4.87885 33.361 
2 4.58626 6.32803 8.34678 
1 -9.43359 -17.0719 11.6843 
1 3.20186 10.6913 1.90994 
2 -3.88346 8.30618 -6.33896 
1 2.02354 5.73361 22.6481 
1 -9.55117 -1.83698 31.5933 
2 4.87878 5.8425 3.83669 
1 15.4485 -22.0568 28.8064 
1 15.4036 1.67418 6.00562 
2 3.47188 2.99092 5.30596 
1 -9.45604 -7.47563 9.76791 
1 43.4026 9.73263 -17.7448 
2 -2.20661 4.97905 -2.55483 
1 -19.0292 -2.43648 21.1199 
1 -14.7098 -4.69473 2.32149 
2 -0.827231 -6.1509 5.66969 
1 19.4489 -1.46988 -6.73568 
1 -15.8337 -11.1992 -19.2038 
2 0.415241 -6.37836 -3.7979 
1 4.90669 1.50074 2.26507 
1 22.3561 -12.0924 -2.74933 
2 -3.97055 3.21112 -2.33155 
1 14.7058 17.486 -14.9761 
1 -8.48218 5.26568 23.613 
2 -4.05242 -5.34122 -0.881316 
1 5.47814 -23.561 38.8363 
1 -24.5106 -13.4333 1.06895 
2 0.306668 6.23476 -3.59136 
1 -9.41698 0.284818 -39.9428 
1 -9.37783 -11.8551 -6.95813 
2 3.93934 -2.005 -1.21203 
1 9.04332 -24.2617 -5.15464 
1 16.7693 8.74819 -15.6851 
2 -4.96224 -0.640162 -2.46587 
1 -1.65508 1.32092 9.53475 
1 -6.20986 3.89198 10.0063 
2 2.04509 2.20027 4.03261 
1 -20.0907 7.84432 -5.5231 
1 14.0481 -23.5063 -6.65564 
2 -2.76422 4.11734 -0.448905 
1 -14.8153 34.9983 0.10335 
1 6.07759 -12.7748 -17.2964 
2 7.94532 4.91 -2.98356 
1 -10.8681 -13.5581 3.02376 
1 -19.2259 12.501 14.4736 
2 5.5141 3.51395 4.69675 
1 -2.31178 0.0640501 -28.1465 
1 -16.7379 -13.2131 -4.81528 
2 2.43094 0.855308 -1.79664 
1 -8.94712 3.14089 -32.9725 
1 -5.09329 18.1047 -11.3559 
2 8.00942 1.64558 -2.27849 
1 -8.54303 11.4593 -3.61885 
1 -27.5534 9.79048 -10.858 
2 -4.45773 4.22048 -0.0644718 
1 -13.3291 -26.6293 3.29612 
1 -0.926143 -12.4871 10.6236 
2 0.32975 1.76208 -3.19015 
1 -29.1696 0.419574 -5.18294 
1 1.24988 -17.507 -14.1371 
2 0.33388 0.296526 -0.63817 
1 8.50405 -13.716 43.8146 
1 5.17204 7.09041 9.24839 
2 0.607255 -4.47269 -3.72808 
1 16.41 -6.35987 -4.07355 
1 3.33365 -16.0579 8.91421 
2 0.298213 2.18756 1.98675 
1 19.3791 5.30121 13.5513 
1 -23.2832 -10.7908 -14.5826 
2 -0.347095 6.39555 -1.88975 
1 12.8708 -19.2689 11.8326 
1 -5.25419 -10.0782 13.3485 
2 5.55047 -3.48881 0.868787 
1 6.12615 17.6886 -1.48202 
1 21.386 -4.72831 -14.3148 
2 -5.68635 -3.69792 -2.63544 
1 0.363814 12.3032 1.81946 
1 -23.836 10.4164 -22.027 
2 -1.22343 -3.41806 4.91569 
1 -10.3409 6.96489 0.892138 
1 -1.76795 -6.23621 -0.982707 
2 -4.36678 -2.09986 5.39162 
1 -33.4737 10.1913 -21.2383 
1 5.48533 -1.89495 5.14212 
2 -1.20827 1.45173 -1.05574 
1 -31.5742 32.1851 -25.4584 
1 7.01365 4.67357 -14.5133 
2 0.835099 0.798044 1.73254 
1 -7.94495 -15.3839 7.26704 
1 -16.0247 -9.57673 -10.6849 
2 5.93682 -1.13537 -5.71134 
1 -11.222 11.3191 -1.61221 
1 -20.2789 4.28345 5.28405 
2 3.52935 0.0128283 -2.57416 
1 23.7008 16.315 -2.73975 
1 13.655 -20.0557 -26.7613 
2 2.21308 -6.2087 0.0330008 
1 1.79007 -0.551781 -17.89 
1 -4.57639 0.829458 -4.55965 
2 4.49025 6.73664 5.74321 
1 17.3959 -11.1038 2.74023 
1 -21.9462 -32.8182 -33.269 
2 -3.17352 4.1874 0.669671 
1 -5.05724 -24.7224 9.87735 
1 1.62284 -6.64503 0.853069 
2 6.33154 2.56176 0.508552 
1 -0.562439 -8.02841 -6.69897 
1 -9.61438 8.30673 26.5736 
2 -0.890098 -2.40755 4.71653 
1 5.55208 -53.4764 -9.56896 
1 17.1343 19.5273 -5.29213 
2 -3.09523 -2.85079 5.3687 
1 21.6075 4.82177 -13.6661 
1 12.6253 -9.1631 -1.28627 
2 5.48154 -5.71975 6.23392 
1 -12.287 0.839762 0.122506 
1 12.3833 18.5577 -8.14255 
2 -3.7276 -5.91861 -0.879993 
1 -17.9837 -0.100497 -3.69718 
1 21.4036 -0.290093 12.1684 
2 7.14268 -1.75399 -0.359626 
1 -12.558 -6.86832 -4.99059 
1 -4.25618 -15.6348 -8.64797 
2 6.43154 3.61454 2.10713 
1 5.64429 1.31828 -12.003 
1 0.417861 -18.0646 2.77763 
2 -3.92821 0.17125 -4.07132 
1 -6.01623 -14.9243 2.2411 
1 -14.254 -0.681143 -39.4706 
2 -5.81467 -1.88258 -7.19833 
1 25.752 7.37344 -10.4721 
1 -3.47043 -15.266 -8.29837 
2 5.36299 -7.25775 -5.85185 
1 -3.84286 -0.362677 5.31474 
1 4.97672 13.0582 -8.2721 
2 -4.36407 -2.78501 3.76905 
1 11.8295 -8.85045 6.11805 
1 9.64183 -2.93484 -15.1197 
2 -4.10821 -8.95662 1.65348 
1 -12.5705 -15.34 -8.70016 
1 -6.3877 5.99241 -34.2286 
2 5.30094 2.21294 5.1865 
1 -3.42942 -9.38346 33.2111 
1 -9.35526 -5.90411 3.87824 
ITEM: TIMESTEP
20
ITEM: NUMBER OF ATOMS
192
ITEM: BOX BOUNDS pp pp pp
0.0000000000000000e+00 1.2432000000000000e+01
0.0000000000000000e+00 1.2432000000000000e+01
0.0000000000000000e+00 1.2432000000000000e+01
ITEM: ATOMS type vx vy vz 
2 2.1276 3.5773 5.31637 
1 -36.0095 6.99477 -2.48118 
1 7.70398 -5.37322 -2.47702 
2 2.54883 -4.70662 -6.55931 
1 -10.1768 1.75705 -12.5727 
1 7.90988 3.47522 7.58602 
2 -2.29797 -2.79089 -1.02731 
1 -0.434485 -23.8511 -15.6649 
1 1.14375 25.69 -14.5245 
2 4.45676 1.49192 -2.18835 
1 27.4362 25.065 6.84081 
1 17.3801 -3.96475 -1.67634 
2 -3.50467 -3.80016 -5.38221 
1 10.7546 -36.7789 6.21347 
1 -5.84089 -4.65742 15.4426 
2 -1.01496 3.28466 5.6286 
1 4.66077 22.6614 4.9217 
1 -30.9694 30.0836 -14.3167 
2 -1.36164 4.17722 9.75047 
1 -4.23246 -0.314762 -13.0059 
1 29.5282 24.0375 10.5347 
2 4.87757 -3.95219 3.1446 
1 -8.46534 -6.79648 -15.9601 
1 -3.81139 5.51063 12.4293 
2 -3.09907 0.261728 1.96734 
1 5.78511 -0.501105 -4.33306 
1 -12.2393 29.1272 -23.4007 
2 -6.72914 -3.39439 2.67928 
1 5.53546 13.8372 3.21298 
1 -2.90102 12.1559 9.41793 
2 -3.14489 -1.01419 -0.153279 
1 -2.76061 7.84725 -18.6536 
1 -3.36844 29.3372 -11.8734 
2 -4.61226 1.33876 1.83253 
1 21.0661 5.23904 14.6306 
1 -6.90991 -5.05322 -26.6172 
2 -3.28257 5.76565 -3.14149 
1 -4.41386 4.59061 3.69911 
1 -20.3158 -4.1022 8.50568 
2 -6.31654 4.34444 -1.29286 
1 -12.6858 -15.5514 3.79725 
1 5.09002 14.4157 7.02398 
2 -1.12426 -0.0767342 -4.48859 