LAMMPS (4 Feb 2020)
OMP_NUM_THREADS environment is not set. Defaulting to 1 thread. (../comm.cpp:94)
  using 1 OpenMP thread(s) per MPI task
variable Nrun   equal 5  #
variable Nevery equal 1
variable T_ext  equal 500.0
variable seed   equal 123456

#-----------------------------------------------------------------------

clear
OMP_NUM_THREADS environment is not set. Defaulting to 1 thread. (../comm.cpp:94)
  using 1 OpenMP thread(s) per MPI task
units metal    # eV, Angstrom, g/mol, ps, K, bar
dimension 3
boundary p p p
atom_style atomic

# read initial structure from data file
read_data aLiSi.data
  orthogonal box = (0 0 0) to (79.5732 94.7758 90.0693)
  1 by 1 by 1 MPI processor grid
  reading atoms ...
  44064 atoms
  read_data CPU = 0.11771 secs

# potential
pair_style aenet Li.ann Si.ann
pair_coeff * *

#set carrier species
#group Li type 1

# Configure output of thermodynamic quantities
#thermo 1
#thermo_style custom step time temp etotal pe ke
# thermo_modify norm yes  # normalize extensive quantitites by number of atoms

# EoM integration
# run_style  verlet
timestep   0.001  # 1fs, 0.001ps

# Neighbor list
neighbor 1.0 bin
neigh_modify once no every 1 delay 0 check yes

# Configure output of thermodynamic quantities
thermo 1
thermo_style custom step time temp etotal pe ke # c_msd[4]  v_fitslope
# thermo_modify norm yes  # normalize extensive quantitites by number of atoms


# NVT simulation with Bussi thermostat
velocity all create ${T_ext} ${seed} rot yes mom yes dist gaussian
velocity all create 500 ${seed} rot yes mom yes dist gaussian
velocity all create 500 123456 rot yes mom yes dist gaussian
fix 1 all nve
fix 2 all temp/csvr ${T_ext} ${T_ext} 1.0 ${seed}
fix 2 all temp/csvr 500 ${T_ext} 1.0 ${seed}
fix 2 all temp/csvr 500 500 1.0 ${seed}
fix 2 all temp/csvr 500 500 1.0 123456
fix 3 all momentum 100 linear 1 1 1
run ${Nrun}
run 5
Neighbor list info ...
  update every 1 steps, delay 0 steps, check yes
  max neighbors/atom: 2000, page size: 100000
  master list distance cutoff = 9
  ghost atom cutoff = 9
  binsize = 4.5, bins = 18 22 21
  1 neighbor lists, perpetual/occasional/extra = 1 0 0
  (1) pair aenet, perpetual
      attributes: full, newton on
      pair build: full/bin/atomonly
      stencil: full/bin/3d
      bin: standard
Per MPI rank memory allocation (min/avg/max) = 45.77 | 45.77 | 45.77 Mbytes
Step Time Temp TotEng PotEng KinEng 
       0            0          500   -128541.27   -131389.07    2847.7949 
       1        0.001    500.49825   -128540.26   -131390.89    2850.6327 
       2        0.002    501.55447   -128539.98   -131396.62    2856.6485 
       3        0.003    503.11579   -128540.47   -131406.01    2865.5412 
       4        0.004    505.32266   -128540.56   -131418.67    2878.1106 
       5        0.005    507.85139   -128540.67   -131433.18    2892.5132 
Loop time of 36.6201 on 1 procs for 5 steps with 44064 atoms

Performance: 0.012 ns/day, 2034.448 hours/ns, 0.137 timesteps/s
99.7% CPU use with 1 MPI tasks x 1 OpenMP threads

MPI task timing breakdown:
Section |  min time  |  avg time  |  max time  |%varavg| %total
---------------------------------------------------------------
Pair    | 36.608     | 36.608     | 36.608     |   0.0 | 99.97
Neigh   | 0          | 0          | 0          |   0.0 |  0.00
Comm    | 0.0032687  | 0.0032687  | 0.0032687  |   0.0 |  0.01
Output  | 0.00053215 | 0.00053215 | 0.00053215 |   0.0 |  0.00
Modify  | 0.0055487  | 0.0055487  | 0.0055487  |   0.0 |  0.02
Other   |            | 0.002782   |            |       |  0.01

Nlocal:    44064 ave 44064 max 44064 min
Histogram: 1 0 0 0 0 0 0 0 0 0
Nghost:    34954 ave 34954 max 34954 min
Histogram: 1 0 0 0 0 0 0 0 0 0
Neighs:    0 ave 0 max 0 min
Histogram: 1 0 0 0 0 0 0 0 0 0
FullNghs:  8.06112e+06 ave 8.06112e+06 max 8.06112e+06 min
Histogram: 1 0 0 0 0 0 0 0 0 0

Total # of neighbors = 8061120
Ave neighs/atom = 182.941
Neighbor list builds = 0
Dangerous builds = 0
Total wall time: 0:00:44
