LAMMPS (4 Feb 2020)
OMP_NUM_THREADS environment is not set. Defaulting to 1 thread. (../comm.cpp:94)
  using 1 OpenMP thread(s) per MPI task
variable Nrun   equal 5  #
variable Nevery equal 1
variable T_ext  equal 400.0
variable seed   equal 123456

#-----------------------------------------------------------------------

clear
OMP_NUM_THREADS environment is not set. Defaulting to 1 thread. (../comm.cpp:94)
  using 1 OpenMP thread(s) per MPI task
units metal    # eV, Angstrom, g/mol, ps, K, bar
dimension 3
boundary p p p
atom_style atomic

# read initial structure from data file
read_data POSCAR-01x01x01-192.data
  orthogonal box = (0 0 0) to (12.42 12.42 12.42)
  1 by 1 by 1 MPI processor grid
  reading atoms ...
  192 atoms
  read_data CPU = 0.0301731 secs

# potential
pair_style aenet H.ann O.ann
pair_coeff * *

#set carrier species
#group O type 1

# Configure output of thermodynamic quantities
#thermo 1
#thermo_style custom step time temp etotal pe ke
# thermo_modify norm yes  # normalize extensive quantitites by number of atoms

# EoM integration
# run_style  verlet
timestep   0.001  # 1fs, 0.001ps

# Neighbor list
neighbor 1.0 bin
neigh_modify once no every 1 delay 0 check yes

# compute msd and diffusivity,no time averaging is done.
# compute msd O msd
# variable twopoint equal c_msd[4]/6/(step*dt+1.0e-6)
# fix msd Li ave/time 1 1 10 c_msd[*] file msd_400K.data
# fix 9 Li vector 10 c_msd[4]
# variable fitslope equal slope(f_9)/6/(10*dt)

# Configure output of thermodynamic quantities
thermo 1
thermo_style custom step time temp etotal pe ke # c_msd[4]  v_fitslope
# thermo_modify norm yes  # normalize extensive quantitites by number of atoms

# save the trajectory in XYZ format
# dump q1 all xyz 10 dump.xyz       #0.02ps output one structure
# dump_modify q1 element H O

# NVT simulation with Bussi thermostat
velocity all create ${T_ext} ${seed} rot yes mom yes dist gaussian
velocity all create 400 ${seed} rot yes mom yes dist gaussian
velocity all create 400 123456 rot yes mom yes dist gaussian
fix 1 all nve
fix 2 all temp/csvr ${T_ext} ${T_ext} 1.0 ${seed}
fix 2 all temp/csvr 400 ${T_ext} 1.0 ${seed}
fix 2 all temp/csvr 400 400 1.0 ${seed}
fix 2 all temp/csvr 400 400 1.0 123456
fix 3 all momentum 100 linear 1 1 1
run ${Nrun}
run 5
Neighbor list info ...
  update every 1 steps, delay 0 steps, check yes
  max neighbors/atom: 2000, page size: 100000
  master list distance cutoff = 7.35
  ghost atom cutoff = 7.35
  binsize = 3.675, bins = 4 4 4
  1 neighbor lists, perpetual/occasional/extra = 1 0 0
  (1) pair aenet, perpetual
      attributes: full, newton on
      pair build: full/bin/atomonly
      stencil: full/bin/3d
      bin: standard
Per MPI rank memory allocation (min/avg/max) = 3.136 | 3.136 | 3.136 Mbytes
Step Time Temp TotEng PotEng KinEng 
       0            0          400   -30044.605    -30054.48    9.8754751 
       1        0.001    403.94893   -30044.551   -30054.524     9.972969 
       2        0.002    411.42799   -30044.535   -30054.693    10.157617 
       3        0.003    420.33079   -30044.584   -30054.962    10.377416 
       4        0.004    421.87388   -30044.609   -30055.024    10.415512 
       5        0.005    406.34177   -30044.573   -30054.605    10.032045 
Loop time of 0.147537 on 1 procs for 5 steps with 192 atoms

Performance: 2.928 ns/day, 8.196 hours/ns, 33.890 timesteps/s
99.6% CPU use with 1 MPI tasks x 1 OpenMP threads

MPI task timing breakdown:
Section |  min time  |  avg time  |  max time  |%varavg| %total
---------------------------------------------------------------
Pair    | 0.14738    | 0.14738    | 0.14738    |   0.0 | 99.90
Neigh   | 0          | 0          | 0          |   0.0 |  0.00
Comm    | 3.5048e-05 | 3.5048e-05 | 3.5048e-05 |   0.0 |  0.02
Output  | 4.4823e-05 | 4.4823e-05 | 4.4823e-05 |   0.0 |  0.03
Modify  | 6.628e-05  | 6.628e-05  | 6.628e-05  |   0.0 |  0.04
Other   |            | 7.868e-06  |            |       |  0.01

Nlocal:    192 ave 192 max 192 min
Histogram: 1 0 0 0 0 0 0 0 0 0
Nghost:    1852 ave 1852 max 1852 min
Histogram: 1 0 0 0 0 0 0 0 0 0
Neighs:    0 ave 0 max 0 min
Histogram: 1 0 0 0 0 0 0 0 0 0
FullNghs:  31756 ave 31756 max 31756 min
Histogram: 1 0 0 0 0 0 0 0 0 0

Total # of neighbors = 31756
Ave neighs/atom = 165.396
Neighbor list builds = 0
Dangerous builds = 0
Total wall time: 0:00:00
