LAMMPS (4 Feb 2020)
OMP_NUM_THREADS environment is not set. Defaulting to 1 thread. (../comm.cpp:94)
  using 1 OpenMP thread(s) per MPI task
variable Nrun   equal 5  #
variable Nevery equal 1
variable T_ext  equal 400.0
variable seed   equal 123456

#-----------------------------------------------------------------------

clear
OMP_NUM_THREADS environment is not set. Defaulting to 1 thread. (../comm.cpp:94)
  using 1 OpenMP thread(s) per MPI task
units metal    # eV, Angstrom, g/mol, ps, K, bar
dimension 3
boundary p p p
atom_style atomic

# read initial structure from data file
read_data POSCAR-20x20x20-1536000.data
  orthogonal box = (0 0 0) to (248.4 248.4 248.4)
  2 by 2 by 3 MPI processor grid
  reading atoms ...
  1536000 atoms
  read_data CPU = 3.3014 secs

# potential
pair_style aenet H.ann O.ann
pair_coeff * *

#set carrier species
#group O type 1

# Configure output of thermodynamic quantities
#thermo 1
#thermo_style custom step time temp etotal pe ke
# thermo_modify norm yes  # normalize extensive quantitites by number of atoms

# EoM integration
# run_style  verlet
timestep   0.001  # 1fs, 0.001ps

# Neighbor list
neighbor 1.0 bin
neigh_modify once no every 1 delay 0 check yes

# compute msd and diffusivity,no time averaging is done.
# compute msd O msd
# variable twopoint equal c_msd[4]/6/(step*dt+1.0e-6)
# fix msd Li ave/time 1 1 10 c_msd[*] file msd_400K.data
# fix 9 Li vector 10 c_msd[4]
# variable fitslope equal slope(f_9)/6/(10*dt)

# Configure output of thermodynamic quantities
thermo 1
thermo_style custom step time temp etotal pe ke # c_msd[4]  v_fitslope
# thermo_modify norm yes  # normalize extensive quantitites by number of atoms

# save the trajectory in XYZ format
# dump q1 all xyz 10 dump.xyz       #0.02ps output one structure
# dump_modify q1 element H O

# NVT simulation with Bussi thermostat
velocity all create ${T_ext} ${seed} rot yes mom yes dist gaussian
velocity all create 400 ${seed} rot yes mom yes dist gaussian
velocity all create 400 123456 rot yes mom yes dist gaussian
fix 1 all nve
fix 2 all temp/csvr ${T_ext} ${T_ext} 1.0 ${seed}
fix 2 all temp/csvr 400 ${T_ext} 1.0 ${seed}
fix 2 all temp/csvr 400 400 1.0 ${seed}
fix 2 all temp/csvr 400 400 1.0 123456
fix 3 all momentum 100 linear 1 1 1
run ${Nrun}
run 5
Neighbor list info ...
  update every 1 steps, delay 0 steps, check yes
  max neighbors/atom: 2000, page size: 100000
  master list distance cutoff = 7.35
  ghost atom cutoff = 7.35
  binsize = 3.675, bins = 68 68 68
  1 neighbor lists, perpetual/occasional/extra = 1 0 0
  (1) pair aenet, perpetual
      attributes: full, newton on
      pair build: full/bin/atomonly
      stencil: full/bin/3d
      bin: standard
Per MPI rank memory allocation (min/avg/max) = 116.7 | 116.8 | 117 Mbytes
Step Time Temp TotEng PotEng KinEng 
       0            0          400 -2.4035642e+08 -2.4043584e+08    79417.381 
       1        0.001    398.59401 -2.4035638e+08 -2.4043552e+08    79138.232 
       2        0.002    397.75879 -2.4035632e+08 -2.4043529e+08    78972.404 
       3        0.003    403.13459 -2.4035636e+08 -2.404364e+08    80039.735 
       4        0.004    413.26378 -2.4035654e+08 -2.4043859e+08    82050.817 
       5        0.005    417.24348 -2.4035666e+08 -2.404395e+08    82840.962 
Loop time of 122.331 on 12 procs for 5 steps with 1536000 atoms

Performance: 0.004 ns/day, 6796.159 hours/ns, 0.041 timesteps/s
99.7% CPU use with 12 MPI tasks x 1 OpenMP threads

MPI task timing breakdown:
Section |  min time  |  avg time  |  max time  |%varavg| %total
---------------------------------------------------------------
Pair    | 121.2      | 121.7      | 122.27     |   2.8 | 99.48
Neigh   | 0          | 0          | 0          |   0.0 |  0.00
Comm    | 0.013169   | 0.59223    | 1.0849     |  40.7 |  0.48
Output  | 0.0034318  | 0.0035723  | 0.0038681  |   0.2 |  0.00
Modify  | 0.028577   | 0.028964   | 0.029305   |   0.1 |  0.02
Other   |            | 0.01053    |            |       |  0.01

Nlocal:    128000 ave 128400 max 127600 min
Histogram: 4 0 0 0 0 4 0 0 0 4
Nghost:    61093.3 ave 61622 max 60437 min
Histogram: 4 0 0 0 0 0 4 0 0 4
Neighs:    0 ave 0 max 0 min
Histogram: 12 0 0 0 0 0 0 0 0 0
FullNghs:  2.11707e+07 ave 2.1241e+07 max 2.1107e+07 min
Histogram: 4 0 0 0 4 0 0 0 0 4

Total # of neighbors = 254048000
Ave neighs/atom = 165.396
Neighbor list builds = 0
Dangerous builds = 0
Total wall time: 0:02:30
