LAMMPS (4 Feb 2020)
OMP_NUM_THREADS environment is not set. Defaulting to 1 thread. (../comm.cpp:94)
  using 1 OpenMP thread(s) per MPI task
variable Nrun   equal 5  #
variable Nevery equal 1
variable T_ext  equal 400.0
variable seed   equal 123456

#-----------------------------------------------------------------------

clear
OMP_NUM_THREADS environment is not set. Defaulting to 1 thread. (../comm.cpp:94)
  using 1 OpenMP thread(s) per MPI task
units metal    # eV, Angstrom, g/mol, ps, K, bar
dimension 3
boundary p p p
atom_style atomic

# read initial structure from data file
read_data POSCAR-21x21x21-1778112.data
  orthogonal box = (0 0 0) to (260.82 260.82 260.82)
  3 by 2 by 2 MPI processor grid
  reading atoms ...
  1778112 atoms
  read_data CPU = 5.21839 secs

# potential
pair_style aenet H.ann O.ann
pair_coeff * *

#set carrier species
#group O type 1

# Configure output of thermodynamic quantities
#thermo 1
#thermo_style custom step time temp etotal pe ke
# thermo_modify norm yes  # normalize extensive quantitites by number of atoms

# EoM integration
# run_style  verlet
timestep   0.001  # 1fs, 0.001ps

# Neighbor list
neighbor 1.0 bin
neigh_modify once no every 1 delay 0 check yes

# compute msd and diffusivity,no time averaging is done.
# compute msd O msd
# variable twopoint equal c_msd[4]/6/(step*dt+1.0e-6)
# fix msd Li ave/time 1 1 10 c_msd[*] file msd_400K.data
# fix 9 Li vector 10 c_msd[4]
# variable fitslope equal slope(f_9)/6/(10*dt)

# Configure output of thermodynamic quantities
thermo 1
thermo_style custom step time temp etotal pe ke # c_msd[4]  v_fitslope
# thermo_modify norm yes  # normalize extensive quantitites by number of atoms

# save the trajectory in XYZ format
# dump q1 all xyz 10 dump.xyz       #0.02ps output one structure
# dump_modify q1 element H O

# NVT simulation with Bussi thermostat
velocity all create ${T_ext} ${seed} rot yes mom yes dist gaussian
velocity all create 400 ${seed} rot yes mom yes dist gaussian
velocity all create 400 123456 rot yes mom yes dist gaussian
fix 1 all nve
fix 2 all temp/csvr ${T_ext} ${T_ext} 1.0 ${seed}
fix 2 all temp/csvr 400 ${T_ext} 1.0 ${seed}
fix 2 all temp/csvr 400 400 1.0 ${seed}
fix 2 all temp/csvr 400 400 1.0 123456
fix 3 all momentum 100 linear 1 1 1
run ${Nrun}
run 5
Neighbor list info ...
  update every 1 steps, delay 0 steps, check yes
  max neighbors/atom: 2000, page size: 100000
  master list distance cutoff = 7.35
  ghost atom cutoff = 7.35
  binsize = 3.675, bins = 71 71 71
  1 neighbor lists, perpetual/occasional/extra = 1 0 0
  (1) pair aenet, perpetual
      attributes: full, newton on
      pair build: full/bin/atomonly
      stencil: full/bin/3d
      bin: standard
Per MPI rank memory allocation (min/avg/max) = 134.6 | 134.8 | 135 Mbytes
Step Time Temp TotEng PotEng KinEng 
       0            0          400 -2.7824261e+08 -2.7833454e+08    91935.554 
       1        0.001    398.48218 -2.7824255e+08 -2.7833414e+08      91586.7 
       2        0.002    397.78727 -2.7824249e+08 -2.7833392e+08    91426.984 
       3        0.003    403.26519 -2.7824254e+08 -2.7833522e+08    92686.021 
       4        0.004    413.23527 -2.7824274e+08 -2.7833772e+08    94977.535 
       5        0.005    417.07353 -2.7824288e+08 -2.7833874e+08    95859.715 
Loop time of 141.481 on 12 procs for 5 steps with 1778112 atoms

Performance: 0.003 ns/day, 7860.070 hours/ns, 0.035 timesteps/s
99.6% CPU use with 12 MPI tasks x 1 OpenMP threads

MPI task timing breakdown:
Section |  min time  |  avg time  |  max time  |%varavg| %total
---------------------------------------------------------------
Pair    | 113.96     | 138.32     | 141.41     |  62.5 | 97.76
Neigh   | 0          | 0          | 0          |   0.0 |  0.00
Comm    | 0.017044   | 3.1157     | 27.477     | 416.8 |  2.20
Output  | 0.0037878  | 0.0041414  | 0.0068371  |   1.3 |  0.00
Modify  | 0.023728   | 0.033535   | 0.035395   |   1.6 |  0.02
Other   |            | 0.01212    |            |       |  0.01

Nlocal:    148176 ave 148631 max 147749 min
Histogram: 3 0 0 3 0 0 3 0 0 3
Nghost:    66904.5 ave 67510 max 66341 min
Histogram: 3 0 0 3 0 0 3 0 0 3
Neighs:    0 ave 0 max 0 min
Histogram: 12 0 0 0 0 0 0 0 0 0
FullNghs:  2.45077e+07 ave 2.45789e+07 max 2.44412e+07 min
Histogram: 3 0 0 3 0 3 0 0 0 3

Total # of neighbors = 294092316
Ave neighs/atom = 165.396
Neighbor list builds = 0
Dangerous builds = 0
Total wall time: 0:02:55
