LAMMPS (4 Feb 2020)
OMP_NUM_THREADS environment is not set. Defaulting to 1 thread. (../comm.cpp:94)
  using 1 OpenMP thread(s) per MPI task
variable Nrun   equal 5  #
variable Nevery equal 1
variable T_ext  equal 400.0
variable seed   equal 123456

#-----------------------------------------------------------------------

clear
OMP_NUM_THREADS environment is not set. Defaulting to 1 thread. (../comm.cpp:94)
  using 1 OpenMP thread(s) per MPI task
units metal    # eV, Angstrom, g/mol, ps, K, bar
dimension 3
boundary p p p
atom_style atomic

# read initial structure from data file
read_data POSCAR-22x22x22-2044416.data
  orthogonal box = (0 0 0) to (273.24 273.24 273.24)
  2 by 2 by 3 MPI processor grid
  reading atoms ...
  2044416 atoms
  read_data CPU = 1.61435 secs

# potential
pair_style aenet H.ann O.ann
pair_coeff * *

#set carrier species
#group O type 1

# Configure output of thermodynamic quantities
#thermo 1
#thermo_style custom step time temp etotal pe ke
# thermo_modify norm yes  # normalize extensive quantitites by number of atoms

# EoM integration
# run_style  verlet
timestep   0.001  # 1fs, 0.001ps

# Neighbor list
neighbor 1.0 bin
neigh_modify once no every 1 delay 0 check yes

# compute msd and diffusivity,no time averaging is done.
# compute msd O msd
# variable twopoint equal c_msd[4]/6/(step*dt+1.0e-6)
# fix msd Li ave/time 1 1 10 c_msd[*] file msd_400K.data
# fix 9 Li vector 10 c_msd[4]
# variable fitslope equal slope(f_9)/6/(10*dt)

# Configure output of thermodynamic quantities
thermo 1
thermo_style custom step time temp etotal pe ke # c_msd[4]  v_fitslope
# thermo_modify norm yes  # normalize extensive quantitites by number of atoms

# save the trajectory in XYZ format
# dump q1 all xyz 10 dump.xyz       #0.02ps output one structure
# dump_modify q1 element H O

# NVT simulation with Bussi thermostat
velocity all create ${T_ext} ${seed} rot yes mom yes dist gaussian
velocity all create 400 ${seed} rot yes mom yes dist gaussian
velocity all create 400 123456 rot yes mom yes dist gaussian
fix 1 all nve
fix 2 all temp/csvr ${T_ext} ${T_ext} 1.0 ${seed}
fix 2 all temp/csvr 400 ${T_ext} 1.0 ${seed}
fix 2 all temp/csvr 400 400 1.0 ${seed}
fix 2 all temp/csvr 400 400 1.0 123456
fix 3 all momentum 100 linear 1 1 1
run ${Nrun}
run 5
Neighbor list info ...
  update every 1 steps, delay 0 steps, check yes
  max neighbors/atom: 2000, page size: 100000
  master list distance cutoff = 7.35
  ghost atom cutoff = 7.35
  binsize = 3.675, bins = 75 75 75
  1 neighbor lists, perpetual/occasional/extra = 1 0 0
  (1) pair aenet, perpetual
      attributes: full, newton on
      pair build: full/bin/atomonly
      stencil: full/bin/3d
      bin: standard
Per MPI rank memory allocation (min/avg/max) = 152.5 | 152.9 | 153.3 Mbytes
Step Time Temp TotEng PotEng KinEng 
       0            0          400 -3.199144e+08 -3.2002011e+08    105704.55 
       1        0.001    398.69094 -3.1991434e+08 -3.200197e+08    105358.62 
       2        0.002    397.85913 -3.1991426e+08 -3.200194e+08     105138.8 
       3        0.003    403.26231 -3.1991432e+08 -3.2002088e+08    106566.65 
       4        0.004    413.39633 -3.1991456e+08 -3.2002381e+08    109244.69 
       5        0.005    417.28165 -3.1991472e+08 -3.2002499e+08    110271.42 
Loop time of 163.223 on 12 procs for 5 steps with 2044416 atoms

Performance: 0.003 ns/day, 9067.965 hours/ns, 0.031 timesteps/s
99.7% CPU use with 12 MPI tasks x 1 OpenMP threads

MPI task timing breakdown:
Section |  min time  |  avg time  |  max time  |%varavg| %total
---------------------------------------------------------------
Pair    | 161.25     | 161.8      | 162.43     |   3.1 | 99.13
Neigh   | 0.70333    | 0.70604    | 0.71136    |   0.3 |  0.43
Comm    | 0.024083   | 0.66055    | 1.2123     |  48.8 |  0.40
Output  | 0.00457    | 0.0048045  | 0.0049613  |   0.2 |  0.00
Modify  | 0.038889   | 0.039191   | 0.039603   |   0.1 |  0.02
Other   |            | 0.01403    |            |       |  0.01

Nlocal:    170368 ave 170902 max 169847 min
Histogram: 4 0 0 0 3 1 0 0 0 4
Nghost:    73080.8 ave 73698 max 72502 min
Histogram: 4 0 0 0 4 0 0 0 0 4
Neighs:    0 ave 0 max 0 min
Histogram: 12 0 0 0 0 0 0 0 0 0
FullNghs:  2.81825e+07 ave 2.82687e+07 max 2.80894e+07 min
Histogram: 4 0 0 0 0 4 0 0 0 4

Total # of neighbors = 338189880
Ave neighs/atom = 165.421
Neighbor list builds = 1
Dangerous builds = 0
Total wall time: 0:03:18
