Generated by runner2lammps.sh, original comment line: 

  192 atoms
  2 atom types

  0.0000000000000000E+00   2.3470397E+01 xlo xhi
  0.0000000000000000E+00   2.3470397E+01 ylo yhi
  0.0000000000000000E+00   2.3470397E+01 zlo zhi

Atoms

    1   2   1.2258649999999999E+01   1.7158709999999999E+01   1.7069900000000001E+01
    2   1   1.3502090000000001E+01   1.8483409999999999E+01   1.6699510000000000E+01
    3   1   1.1430949999999999E+01   1.7232410000000002E+01   1.8766870000000001E+01
    4   2   2.0785100000000000E+01   1.2929510000000001E+01   1.2207600000000001E+00
    5   1   2.0836120000000001E+01   1.4069010000000000E+01   2.6909700000000001E+00
    6   1   2.0811550000000000E+01   1.4231529999999999E+01   2.3313549999999999E+01
    7   2   2.1138480000000001E+01   9.6379999999999993E-02   1.6731639999999999E+01
    8   1   1.9362130000000001E+01   2.3069780000000002E+01   1.6807220000000001E+01
    9   1   2.2064440000000001E+01   2.2771200000000000E+01   1.5346470000000000E+01
   10   2   2.0080230000000000E+01   1.6637149999999998E+01   2.0261640000000000E+01
   11   1   1.9135370000000002E+01   1.5265210000000000E+01   1.9348910000000000E+01
   12   1   2.1584450000000000E+01   1.6905490000000000E+01   1.9271429999999999E+01
   13   2   5.5860300000000001E+00   1.8022320000000001E+01   1.1243869999999999E+01
   14   1   6.5497899999999998E+00   1.7289100000000001E+01   1.2604469999999999E+01
   15   1   4.2802300000000004E+00   1.9152370000000001E+01   1.1916610000000000E+01
   16   2   1.7052890000000001E+01   3.0197799999999999E+00   1.0847030000000000E+01
   17   1   1.6981079999999999E+01   1.3265899999999999E+00   1.1472530000000001E+01
   18   1   1.7942950000000000E+01   2.9876600000000000E+00   9.2426499999999994E+00
   19   2   2.1327449999999999E+01   2.2903479999999998E+01   5.5179999999999996E-01
   20   1   2.1684609999999999E+01   1.1716299999999999E+00   1.3228000000000001E-01
   21   1   2.2618130000000001E+01   2.1833900000000000E+01   2.3430710000000001E+01
   22   2   6.8200200000000004E+00   1.3286659999999999E+01   4.0893699999999997E+00
   23   1   6.1227099999999997E+00   1.3853579999999999E+01   2.4755400000000001E+00
   24   1   5.7031900000000002E+00   1.4159720000000000E+01   5.3668199999999997E+00
   25   2   1.3791219999999999E+01   8.9629700000000003E+00   1.7941060000000000E+01
   26   1   1.5157489999999999E+01   7.7365399999999998E+00   1.8666709999999998E+01
   27   1   1.2424950000000001E+01   8.6814000000000000E+00   1.9118359999999999E+01
   28   2   1.6831790000000002E+01   9.9720800000000001E+00   1.5344599999999999E+00
   29   1   1.8188610000000001E+01   1.1315680000000000E+01   1.1338400000000000E+00
   30   1   1.5134819999999999E+01   1.0453960000000000E+01   8.9761999999999997E-01
   31   2   1.6198730000000001E+01   2.2408370000000001E+01   4.2783400000000000E+00
   32   1   1.6032440000000001E+01   2.1491859999999999E+01   2.6720700000000002E+00
   33   1   1.5699840000000000E+01   2.1248080000000002E+01   5.7655500000000002E+00
   34   2   1.8014759999999999E+01   1.3997199999999999E+01   1.1822130000000000E+01
   35   1   1.7895710000000001E+01   1.2387150000000000E+01   1.1024660000000001E+01
   36   1   1.7557449999999999E+01   1.3857360000000000E+01   1.3600360000000000E+01
   37   2   1.0557900000000000E+01   1.0797900000000000E+01   6.6990800000000004E+00
   38   1   1.1304340000000000E+01   1.2147160000000000E+01   7.7176400000000003E+00
   39   1   9.6753999999999998E+00   1.1621820000000000E+01   5.2704500000000003E+00
   40   2   1.3292330000000000E+01   9.1878499999999992E+00   1.2670610000000000E+01
   41   1   1.4798450000000001E+01   8.5510099999999998E+00   1.1871259999999999E+01
   42   1   1.3441620000000000E+01   8.7116399999999992E+00   1.4499870000000000E+01
   43   2   2.3109459999999999E+01   2.2960199999999999E+00   8.9799799999999994E+00
   44   1   1.4532000000000000E+00   2.5454599999999998E+00   8.4697499999999994E+00
   45   1   2.2863800000000001E+01   3.6150500000000001E+00   1.0276330000000000E+01
   46   2   9.4542999999999999E+00   1.4826790000000001E+01   2.0839900000000000E+01
   47   1   9.2634399999999992E+00   1.3356579999999999E+01   1.9666380000000000E+01
   48   1   7.7252000000000001E+00   1.5295439999999999E+01   2.1098790000000001E+01
   49   2   4.5655799999999997E+00   2.9460799999999998E+00   1.3689180000000000E+01
   50   1   6.1586200000000000E+00   3.5734699999999999E+00   1.4420500000000001E+01
   51   1   5.1721800000000000E+00   2.8232499999999998E+00   1.1880710000000001E+01
   52   2   2.2128700000000001E+00   1.9983850000000000E+01   2.3137810000000002E+01
   53   1   2.9215200000000001E+00   2.1240520000000000E+01   9.2596999999999996E-01
   54   1   2.5983700000000001E+00   2.0758640000000000E+01   2.1571220000000000E+01
   55   2   8.9573000000000000E+00   2.1049659999999999E+01   7.5154399999999999E+00
   56   1   9.0820200000000000E+00   2.0282430000000002E+01   5.8354699999999999E+00
   57   1   7.8574799999999998E+00   2.0087789999999998E+01   8.7248699999999992E+00
   58   2   5.8222500000000004E+00   1.8999310000000001E+01   1.7814450000000001E+01
   59   1   4.3633800000000003E+00   1.7759650000000001E+01   1.7408159999999999E+01
   60   1   7.3642599999999998E+00   1.7929720000000000E+01   1.7738859999999999E+01
   61   2   1.8575999999999999E+00   2.1913260000000001E+01   1.2629040000000000E+01
   62   1   1.4626500000000000E+00   2.3007420000000000E+01   1.1251429999999999E+01
   63   1   3.0424600000000002E+00   2.3100010000000001E+01   1.3469970000000000E+01
   64   2   1.2133929999999999E+01   1.1062460000000000E+01   8.1069000000000002E-01
   65   1   1.0826240000000000E+01   9.7623300000000004E+00   7.0108999999999999E-01
   66   1   1.1138050000000000E+01   1.2598800000000001E+01   4.3464000000000003E-01
   67   2   2.4396399999999998E+00   5.1022999999999996E-01   3.7662200000000001E+00
   68   1   4.2329900000000000E+00   9.8643999999999998E-01   3.5829200000000001E+00
   69   1   1.5098900000000000E+00   2.1089300000000000E+00   3.5300099999999999E+00
   70   2   3.9117000000000002E-01   5.8354699999999999E+00   1.3358470000000001E+01
   71   1   1.5514699999999999E+00   4.5655799999999997E+00   1.4052000000000000E+01
   72   1   2.2463170000000002E+01   6.1227099999999997E+00   1.4601910000000000E+01
   73   2   1.4883480000000000E+01   1.4898600000000000E+01   4.2651100000000000E+00
   74   1   1.4367590000000000E+01   1.3324460000000000E+01   3.5375700000000001E+00
   75   1   1.6654160000000001E+01   1.5004429999999999E+01   4.6695099999999998E+00
   76   2   1.6856359999999999E+01   2.0605570000000000E+01   2.2808990000000001E+01
   77   1   1.8137589999999999E+01   2.1733740000000001E+01   2.3489300000000000E+01
   78   1   1.7935390000000002E+01   1.9033320000000000E+01   2.2584119999999999E+01
   79   2   1.5996530000000000E+01   5.9771999999999998E+00   2.1665710000000001E+01
   80   1   1.6253530000000001E+01   7.5456799999999999E+00   2.2627579999999998E+01
   81   1   1.7678390000000000E+01   5.2477700000000000E+00   2.1956730000000000E+01
   82   2   1.3883820000000000E+01   1.9942280000000000E+01   8.8835999999999995E+00
   83   1   1.4424280000000000E+01   2.0860690000000002E+01   1.0457739999999999E+01
   84   1   1.2239760000000000E+01   2.0698170000000001E+01   8.4735300000000002E+00
   85   2   1.0392999999999999E-01   1.2016769999999999E+01   1.4496090000000001E+01
   86   1   2.1922709999999999E+01   1.1207970000000000E+01   1.4768210000000000E+01
   87   1   6.8408000000000002E-01   1.1327019999999999E+01   1.2836910000000000E+01
   88   2   1.1665279999999999E+01   3.4563100000000002E+00   5.0984800000000003E+00
   89   1   1.2878480000000000E+01   4.9435200000000004E+00   5.3781600000000003E+00
   90   1   1.3086349999999999E+01   2.1240500000000000E+00   5.0172200000000000E+00
   91   2   1.8708290000000002E+01   6.0263400000000003E+00   1.5601580000000000E+01
   92   1   1.8490970000000001E+01   5.6597299999999997E+00   1.3819570000000001E+01
   93   1   1.9103240000000000E+01   4.3596000000000004E+00   1.6244090000000000E+01
   94   2   7.4379600000000003E+00   1.0144050000000000E+01   1.8483409999999999E+01
   95   1   7.4814299999999996E+00   9.6980699999999995E+00   1.6572900000000001E+01
   96   1   5.6597299999999997E+00   1.0618370000000001E+01   1.8865140000000000E+01
   97   2   2.1372800000000002E+01   2.0250309999999999E+01   6.1038199999999998E+00
   98   1   2.3117020000000000E+01   2.0278649999999999E+01   5.5444599999999999E+00
   99   1   2.0335339999999999E+01   2.1081779999999998E+01   4.8036799999999999E+00
  100   2   1.2230309999999999E+01   1.4879700000000000E+01   9.8492499999999996E+00
  101   1   1.3885710000000000E+01   1.4172950000000000E+01   1.0421840000000000E+01
  102   1   1.3027770000000000E+01   1.6527539999999998E+01   9.2615499999999997E+00
  103   2   1.5200960000000000E+01   2.1866019999999999E+01   1.7844680000000000E+01
  104   1   1.4208850000000000E+01   2.3271979999999999E+01   1.8373809999999999E+01
  105   1   1.6109919999999999E+01   2.1319890000000001E+01   1.9462289999999999E+01
  106   2   2.0269200000000001E+01   1.8566559999999999E+01   1.2260540000000001E+01
  107   1   1.9957400000000000E+01   1.6797779999999999E+01   1.1742760000000001E+01
  108   1   2.0900369999999999E+01   1.9462289999999999E+01   1.0797900000000000E+01
  109   2   5.3195800000000002E+00   1.7782300000000000E+00   8.6587300000000003E+00
  110   1   6.1321599999999998E+00   2.7023000000000003E-01   7.9255100000000001E+00
  111   1   5.7976799999999997E+00   3.2484400000000000E+00   7.5929200000000003E+00
  112   2   2.0412820000000000E+01   7.2848899999999999E+00   3.7170899999999998E+00
  113   1   1.8919940000000000E+01   8.0351199999999992E+00   2.9460799999999998E+00
  114   1   1.9715509999999998E+01   5.7504400000000002E+00   4.6846300000000003E+00
  115   2   1.6417940000000002E+01   1.3445399999999999E+01   1.7092569999999998E+01
  116   1   1.5034660000000001E+01   1.2224640000000001E+01   1.7192730000000001E+01
  117   1   1.5701730000000000E+01   1.4996869999999999E+01   1.7478079999999999E+01
  118   2   2.0964620000000000E+01   4.2745600000000001E+00   2.2476400000000002E+01
  119   1   2.2191050000000001E+01   4.6921900000000001E+00   2.1091229999999999E+01
  120   1   2.1359570000000001E+01   5.5935899999999998E+00   2.7778999999999998E-01
  121   2   2.2506599999999999E+00   7.2017499999999997E+00   1.7045300000000001E+00
  122   1   2.9706500000000000E+00   7.2622200000000001E+00   3.3920599999999999E+00
  123   1   4.7243000000000002E-01   7.4266199999999998E+00   2.0049999999999999E+00
  124   2   3.8115800000000002E+00   1.6102360000000001E+01   6.8842699999999999E+00
  125   1   2.3848300000000000E+00   1.5115919999999999E+01   7.4077299999999999E+00
  126   1   4.5655799999999997E+00   1.6480300000000000E+01   8.5075500000000002E+00
  127   2   6.7633299999999998E+00   6.5346700000000002E+00   6.7727800000000000E+00
  128   1   6.2228700000000003E+00   7.4303999999999997E+00   8.3374699999999997E+00
  129   1   8.0332299999999996E+00   7.8933900000000001E+00   6.3400299999999996E+00
  130   2   1.1886380000000001E+01   1.9823200000000001E+00   1.9895040000000002E+01
  131   1   1.3182729999999999E+01   2.9744299999999999E+00   2.0822890000000001E+01
  132   1   1.0780889999999999E+01   1.3606000000000000E+00   2.1274539999999998E+01
  133   2   2.1070400000000000E+00   1.0962300000000001E+01   2.0420380000000002E+01
  134   1   2.2960199999999999E+00   9.5412300000000005E+00   2.1425709999999999E+01
  135   1   7.8234999999999999E-01   1.0648610000000000E+01   1.9244969999999999E+01
  136   2   1.4652939999999999E+01   7.5400099999999997E+00   6.0112199999999998E+00
  137   1   1.5355910000000000E+01   8.3998299999999997E+00   4.5712500000000000E+00
  138   1   1.3339580000000000E+01   8.7739999999999991E+00   6.6405000000000003E+00
  139   2   9.6451600000000006E+00   6.7992299999999997E+00   2.3115130000000001E+01
  140   1   8.0993700000000004E+00   6.5044399999999998E+00   2.2123020000000000E+01
  141   1   9.7453199999999995E+00   5.1929699999999999E+00   6.5385000000000004E-01
  142   2   5.8204000000000000E-01   1.6982970000000002E+01   1.6004090000000001E+01
  143   1   2.2759860000000000E+01   1.7644369999999999E+01   1.4951510000000001E+01
  144   1   5.2156000000000002E-01   1.5080010000000000E+01   1.5773540000000001E+01
  145   2   1.8953949999999999E+01   3.1086000000000000E+00   6.1189299999999998E+00
  146   1   1.8162160000000000E+01   1.6081600000000000E+00   5.2874499999999998E+00
  147   1   2.0516760000000001E+01   2.4774300000000000E+00   6.8464799999999997E+00
  148   2   7.6137100000000002E+00   1.0620300000000000E+00   2.1561800000000000E+00
  149   1   8.7324199999999994E+00   1.9823200000000001E+00   3.4090699999999998E+00
  150   1   8.6795100000000005E+00   2.2924270000000000E+01   1.9161800000000000E+00
  151   2   1.8290659999999999E+01   8.6662800000000004E+00   9.6527200000000004E+00
  152   1   2.0053770000000000E+01   8.4773099999999992E+00   9.1103699999999996E+00
  153   1   1.7143599999999999E+01   8.4244000000000003E+00   8.2051900000000000E+00
  154   2   1.9794879999999999E+01   1.5320010000000000E+01   5.5066600000000001E+00
  155   1   2.0424160000000001E+01   1.7015090000000001E+01   6.0206700000000000E+00
  156   1   2.0947610000000001E+01   1.4053890000000001E+01   6.3570399999999996E+00
  157   2   7.6760700000000002E+00   1.0193180000000000E+01   1.3254540000000000E+01
  158   1   8.1125900000000009E+00   1.1884490000000000E+01   1.3390599999999999E+01
  159   1   9.1594999999999995E+00   9.4184000000000001E+00   1.2568569999999999E+01
  160   2   9.0971399999999996E+00   4.3161300000000002E+00   1.5374810000000000E+01
  161   1   1.0070349999999999E+01   3.7662200000000001E+00   1.3783659999999999E+01
  162   1   9.7150800000000004E+00   3.4733200000000002E+00   1.6901710000000001E+01
  163   2   8.5453399999999995E+00   2.0089680000000001E+01   2.3122689999999999E+01
  164   1   9.3994999999999997E+00   1.9031430000000000E+01   8.5604999999999998E-01
  165   1   6.8162399999999996E+00   1.9479299999999999E+01   2.2903479999999998E+01
  166   2   2.4944400000000000E+00   2.2865690000000001E+01   1.8619470000000000E+01
  167   1   3.3712700000000000E+00   2.1629809999999999E+01   1.7644369999999999E+01
  168   1   7.5022000000000000E-01   2.2676710000000000E+01   1.8228300000000001E+01
  169   2   8.9894300000000005E+00   1.4885370000000000E+01   1.3715630000000001E+01
  170   1   1.0299010000000001E+01   1.4959070000000001E+01   1.2394710000000000E+01
  171   1   9.9512999999999998E+00   1.5518430000000000E+01   1.5127260000000000E+01
  172   2   1.1478199999999999E+01   2.1448399999999999E+00   1.1128600000000000E+01
  173   1   1.0450189999999999E+01   2.6928600000000000E+00   9.7604399999999991E+00
  174   1   1.3209190000000000E+01   2.7571099999999999E+00   1.0928290000000001E+01
  175   2   2.9290799999999999E+00   9.5922499999999999E+00   1.0639160000000000E+01
  176   1   2.1467299999999998E+00   8.0766899999999993E+00   1.1466860000000000E+01
  177   1   4.3331400000000002E+00   1.0004210000000000E+01   1.1693630000000001E+01
  178   2   1.6391480000000001E+01   2.1894369999999999E+01   1.3078790000000000E+01
  179   1   1.7532879999999999E+01   2.0367470000000001E+01   1.3112810000000000E+01
  180   1   1.5800000000000001E+01   2.2170269999999999E+01   1.4826790000000001E+01
  181   2   4.3955000000000002E+00   1.5501420000000000E+01   2.3253080000000001E+01
  182   1   3.1823000000000001E+00   1.6941389999999998E+01   2.3164259999999999E+01
  183   1   3.3788299999999998E+00   1.4104920000000000E+01   2.2718290000000000E+01
  184   2   1.6365000000000001E+00   4.7356499999999997E+00   1.9666380000000000E+01
  185   1   1.7593399999999999E+00   3.4298500000000001E+00   1.8326560000000001E+01
  186   1   2.4528599999999998E+00   3.9041700000000001E+00   2.1087450000000000E+01
  187   2   1.0625930000000000E+01   1.7614139999999999E+01   3.5734699999999999E+00
  188   1   1.2428730000000000E+01   1.7081230000000001E+01   3.7227600000000001E+00
  189   1   9.6697299999999995E+00   1.6164719999999999E+01   4.1214899999999997E+00
  190   2   2.2960170000000002E+01   1.1185290000000000E+01   6.6896300000000002E+00
  191   1   8.8627999999999996E-01   1.0459630000000001E+01   7.6968500000000004E+00
  192   1   2.2060659999999999E+01   9.8360199999999995E+00   5.7107500000000000E+00
