Generated by runner2lammps.sh, original comment line: 

  192 atoms
  2 atom types

  0.0000000000000000E+00   1.2432000000000000E+01 xlo xhi
  0.0000000000000000E+00   1.2432000000000000E+01 ylo yhi
  0.0000000000000000E+00   1.2432000000000000E+01 zlo zhi

Atoms

    1   2   6.4870000000000001E+00   9.0800000000000001E+00   9.0329999999999995E+00
    2   1   7.1449999999999996E+00   9.7810000000000006E+00   8.8369999999999997E+00
    3   1   6.0490000000000004E+00   9.1189999999999998E+00   9.9309999999999992E+00
    4   2   1.0999000000000001E+01   6.8419999999999996E+00   6.4600000000000002E-01
    5   1   1.1026000000000000E+01   7.4450000000000003E+00   1.4239999999999999E+00
    6   1   1.1013000000000000E+01   7.5309999999999997E+00   1.2337000000000000E+01
    7   2   1.1186000000000000E+01   5.0999999999999997E-02   8.8539999999999992E+00
    8   1   1.0246000000000000E+01   1.2208000000000000E+01   8.8940000000000001E+00
    9   1   1.1676000000000000E+01   1.2050000000000001E+01   8.1210000000000004E+00
   10   2   1.0625999999999999E+01   8.8040000000000003E+00   1.0722000000000000E+01
   11   1   1.0125999999999999E+01   8.0779999999999994E+00   1.0239000000000001E+01
   12   1   1.1422000000000001E+01   8.9459999999999997E+00   1.0198000000000000E+01
   13   2   2.9560000000000000E+00   9.5370000000000008E+00   5.9500000000000002E+00
   14   1   3.4660000000000002E+00   9.1489999999999991E+00   6.6699999999999999E+00
   15   1   2.2650000000000001E+00   1.0135000000000000E+01   6.3060000000000000E+00
   16   2   9.0239999999999991E+00   1.5980000000000001E+00   5.7400000000000002E+00
   17   1   8.9860000000000007E+00   7.0199999999999996E-01   6.0709999999999997E+00
   18   1   9.4949999999999992E+00   1.5810000000000000E+00   4.8910000000000000E+00
   19   2   1.1286000000000000E+01   1.2119999999999999E+01   2.9199999999999998E-01
   20   1   1.1475000000000000E+01   6.2000000000000000E-01   7.0000000000000007E-02
   21   1   1.1968999999999999E+01   1.1554000000000000E+01   1.2398999999999999E+01
   22   2   3.6090000000000000E+00   7.0309999999999997E+00   2.1640000000000001E+00
   23   1   3.2400000000000002E+00   7.3310000000000004E+00   1.3100000000000001E+00
   24   1   3.0179999999999998E+00   7.4930000000000003E+00   2.8399999999999999E+00
   25   2   7.2980000000000000E+00   4.7430000000000003E+00   9.4939999999999998E+00
   26   1   8.0210000000000008E+00   4.0940000000000003E+00   9.8780000000000001E+00
   27   1   6.5750000000000002E+00   4.5940000000000003E+00   1.0117000000000001E+01
   28   2   8.9070000000000000E+00   5.2770000000000001E+00   8.1200000000000006E-01
   29   1   9.6250000000000000E+00   5.9880000000000004E+00   5.9999999999999998E-01
   30   1   8.0090000000000003E+00   5.5320000000000000E+00   4.7499999999999998E-01
   31   2   8.5719999999999992E+00   1.1858000000000001E+01   2.2639999999999998E+00
   32   1   8.4840000000000000E+00   1.1372999999999999E+01   1.4139999999999999E+00
   33   1   8.3079999999999998E+00   1.1244000000000000E+01   3.0510000000000002E+00
   34   2   9.5329999999999995E+00   7.4070000000000000E+00   6.2560000000000002E+00
   35   1   9.4700000000000006E+00   6.5549999999999997E+00   5.8339999999999996E+00
   36   1   9.2910000000000004E+00   7.3330000000000002E+00   7.1970000000000001E+00
   37   2   5.5869999999999997E+00   5.7140000000000004E+00   3.5449999999999999E+00
   38   1   5.9820000000000002E+00   6.4279999999999999E+00   4.0839999999999996E+00
   39   1   5.1200000000000001E+00   6.1500000000000004E+00   2.7890000000000001E+00
   40   2   7.0339999999999998E+00   4.8620000000000001E+00   6.7050000000000001E+00
   41   1   7.8310000000000004E+00   4.5250000000000004E+00   6.2820000000000000E+00
   42   1   7.1130000000000004E+00   4.6100000000000003E+00   7.6730000000000000E+00
   43   2   1.2228999999999999E+01   1.2150000000000001E+00   4.7519999999999998E+00
   44   1   7.6900000000000002E-01   1.3470000000000000E+00   4.4820000000000002E+00
   45   1   1.2099000000000000E+01   1.9130000000000000E+00   5.4379999999999997E+00
   46   2   5.0030000000000001E+00   7.8460000000000001E+00   1.1028000000000000E+01
   47   1   4.9020000000000001E+00   7.0679999999999996E+00   1.0407000000000000E+01
   48   1   4.0880000000000001E+00   8.0939999999999994E+00   1.1164999999999999E+01
   49   2   2.4159999999999999E+00   1.5589999999999999E+00   7.2439999999999998E+00
   50   1   3.2589999999999999E+00   1.8910000000000000E+00   7.6310000000000002E+00
   51   1   2.7370000000000001E+00   1.4940000000000000E+00   6.2869999999999999E+00
   52   2   1.1710000000000000E+00   1.0574999999999999E+01   1.2244000000000000E+01
   53   1   1.5460000000000000E+00   1.1240000000000000E+01   4.8999999999999999E-01
   54   1   1.3750000000000000E+00   1.0984999999999999E+01   1.1414999999999999E+01
   55   2   4.7400000000000002E+00   1.1138999999999999E+01   3.9769999999999999E+00
   56   1   4.8060000000000000E+00   1.0733000000000001E+01   3.0880000000000001E+00
   57   1   4.1580000000000004E+00   1.0630000000000001E+01   4.6170000000000000E+00
   58   2   3.0810000000000000E+00   1.0054000000000000E+01   9.4269999999999996E+00
   59   1   2.3090000000000002E+00   9.3979999999999997E+00   9.2119999999999997E+00
   60   1   3.8969999999999998E+00   9.4879999999999995E+00   9.3870000000000005E+00
   61   2   9.8299999999999998E-01   1.1596000000000000E+01   6.6829999999999998E+00
   62   1   7.7400000000000002E-01   1.2175000000000001E+01   5.9539999999999997E+00
   63   1   1.6100000000000001E+00   1.2224000000000000E+01   7.1280000000000001E+00
   64   2   6.4210000000000003E+00   5.8540000000000001E+00   4.2899999999999999E-01
   65   1   5.7290000000000001E+00   5.1660000000000004E+00   3.7100000000000000E-01
   66   1   5.8940000000000001E+00   6.6669999999999998E+00   2.3000000000000001E-01
   67   2   1.2909999999999999E+00   2.7000000000000002E-01   1.9930000000000001E+00
   68   1   2.2400000000000002E+00   5.2200000000000002E-01   1.8959999999999999E+00
   69   1   7.9900000000000004E-01   1.1160000000000001E+00   1.8680000000000001E+00
   70   2   2.0699999999999999E-01   3.0880000000000001E+00   7.0690000000000000E+00
   71   1   8.2099999999999995E-01   2.4159999999999999E+00   7.4359999999999999E+00
   72   1   1.1887000000000000E+01   3.2400000000000002E+00   7.7270000000000003E+00
   73   2   7.8760000000000003E+00   7.8840000000000003E+00   2.2570000000000001E+00
   74   1   7.6029999999999998E+00   7.0510000000000002E+00   1.8720000000000001E+00
   75   1   8.8130000000000006E+00   7.9400000000000004E+00   2.4710000000000001E+00
   76   2   8.9199999999999999E+00   1.0904000000000000E+01   1.2070000000000000E+01
   77   1   9.5980000000000008E+00   1.1500999999999999E+01   1.2430000000000000E+01
   78   1   9.4909999999999997E+00   1.0071999999999999E+01   1.1951000000000001E+01
   79   2   8.4649999999999999E+00   3.1629999999999998E+00   1.1465000000000000E+01
   80   1   8.6010000000000009E+00   3.9929999999999999E+00   1.1974000000000000E+01
   81   1   9.3550000000000004E+00   2.7770000000000001E+00   1.1619000000000000E+01
   82   2   7.3470000000000004E+00   1.0553000000000001E+01   4.7009999999999996E+00
   83   1   7.6330000000000000E+00   1.1039000000000000E+01   5.5339999999999998E+00
   84   1   6.4770000000000003E+00   1.0952999999999999E+01   4.4840000000000000E+00
   85   2   5.5000000000000000E-02   6.3590000000000000E+00   7.6710000000000003E+00
   86   1   1.1601000000000001E+01   5.9310000000000000E+00   7.8150000000000004E+00
   87   1   3.6199999999999999E-01   5.9939999999999998E+00   6.7930000000000001E+00
   88   2   6.1730000000000000E+00   1.8290000000000000E+00   2.6980000000000000E+00
   89   1   6.8150000000000004E+00   2.6160000000000001E+00   2.8460000000000001E+00
   90   1   6.9249999999999998E+00   1.1240000000000001E+00   2.6549999999999998E+00
   91   2   9.9000000000000004E+00   3.1890000000000001E+00   8.2560000000000002E+00
   92   1   9.7850000000000001E+00   2.9950000000000001E+00   7.3129999999999997E+00
   93   1   1.0109000000000000E+01   2.3069999999999999E+00   8.5960000000000001E+00
   94   2   3.9359999999999999E+00   5.3680000000000003E+00   9.7810000000000006E+00
   95   1   3.9590000000000001E+00   5.1319999999999997E+00   8.7699999999999996E+00
   96   1   2.9950000000000001E+00   5.6189999999999998E+00   9.9830000000000005E+00
   97   2   1.1310000000000000E+01   1.0715999999999999E+01   3.2300000000000000E+00
   98   1   1.2233000000000001E+01   1.0731000000000000E+01   2.9340000000000002E+00
   99   1   1.0760999999999999E+01   1.1156000000000001E+01   2.5419999999999998E+00
  100   2   6.4720000000000004E+00   7.8739999999999997E+00   5.2119999999999997E+00
  101   1   7.3479999999999999E+00   7.5000000000000000E+00   5.5149999999999997E+00
  102   1   6.8940000000000001E+00   8.7460000000000004E+00   4.9009999999999998E+00
  103   2   8.0440000000000005E+00   1.1571000000000000E+01   9.4429999999999996E+00
  104   1   7.5190000000000001E+00   1.2315000000000000E+01   9.7230000000000008E+00
  105   1   8.5250000000000004E+00   1.1282000000000000E+01   1.0298999999999999E+01
  106   2   1.0726000000000001E+01   9.8249999999999993E+00   6.4880000000000004E+00
  107   1   1.0561000000000000E+01   8.8889999999999993E+00   6.2140000000000004E+00
  108   1   1.1060000000000000E+01   1.0298999999999999E+01   5.7140000000000004E+00
  109   2   2.8149999999999999E+00   9.4099999999999995E-01   4.5819999999999999E+00
  110   1   3.2450000000000001E+00   1.4299999999999999E-01   4.1940000000000000E+00
  111   1   3.0680000000000001E+00   1.7190000000000001E+00   4.0179999999999998E+00
  112   2   1.0802000000000000E+01   3.8550000000000000E+00   1.9670000000000001E+00
  113   1   1.0012000000000000E+01   4.2519999999999998E+00   1.5589999999999999E+00
  114   1   1.0433000000000000E+01   3.0430000000000001E+00   2.4790000000000001E+00
  115   2   8.6880000000000006E+00   7.1150000000000002E+00   9.0449999999999999E+00
  116   1   7.9560000000000004E+00   6.4690000000000003E+00   9.0980000000000008E+00
  117   1   8.3089999999999993E+00   7.9359999999999999E+00   9.2490000000000006E+00
  118   2   1.1093999999999999E+01   2.2620000000000000E+00   1.1894000000000000E+01
  119   1   1.1743000000000000E+01   2.4830000000000001E+00   1.1161000000000000E+01
  120   1   1.1303000000000001E+01   2.9600000000000000E+00   1.4699999999999999E-01
  121   2   1.1910000000000001E+00   3.8109999999999999E+00   9.0200000000000002E-01
  122   1   1.5720000000000001E+00   3.8430000000000000E+00   1.7949999999999999E+00
  123   1   2.5000000000000000E-01   3.9300000000000002E+00   1.0609999999999999E+00
  124   2   2.0169999999999999E+00   8.5210000000000008E+00   3.6429999999999998E+00
  125   1   1.2620000000000000E+00   7.9989999999999997E+00   3.9199999999999999E+00
  126   1   2.4159999999999999E+00   8.7210000000000001E+00   4.5019999999999998E+00
  127   2   3.5790000000000002E+00   3.4580000000000002E+00   3.5840000000000001E+00
  128   1   3.2930000000000001E+00   3.9319999999999999E+00   4.4119999999999999E+00
  129   1   4.2510000000000003E+00   4.1769999999999996E+00   3.3550000000000000E+00
  130   2   6.2900000000000000E+00   1.0489999999999999E+00   1.0528000000000000E+01
  131   1   6.9760000000000000E+00   1.5740000000000001E+00   1.1019000000000000E+01
  132   1   5.7050000000000001E+00   7.1999999999999997E-01   1.1257999999999999E+01
  133   2   1.1150000000000000E+00   5.8010000000000002E+00   1.0805999999999999E+01
  134   1   1.2150000000000001E+00   5.0490000000000004E+00   1.1337999999999999E+01
  135   1   4.1399999999999998E-01   5.6349999999999998E+00   1.0183999999999999E+01
  136   2   7.7539999999999996E+00   3.9900000000000002E+00   3.1810000000000000E+00
  137   1   8.1259999999999994E+00   4.4450000000000003E+00   2.4190000000000000E+00
  138   1   7.0590000000000002E+00   4.6429999999999998E+00   3.5139999999999998E+00
  139   2   5.1040000000000001E+00   3.5979999999999999E+00   1.2231999999999999E+01
  140   1   4.2859999999999996E+00   3.4420000000000002E+00   1.1707000000000001E+01
  141   1   5.1570000000000000E+00   2.7480000000000002E+00   3.4599999999999997E-01
  142   2   3.0800000000000000E-01   8.9870000000000001E+00   8.4689999999999994E+00
  143   1   1.2044000000000000E+01   9.3369999999999997E+00   7.9119999999999999E+00
  144   1   2.7600000000000002E-01   7.9800000000000004E+00   8.3469999999999995E+00
  145   2   1.0029999999999999E+01   1.6450000000000000E+00   3.2380000000000000E+00
  146   1   9.6110000000000007E+00   8.5099999999999998E-01   2.7980000000000000E+00
  147   1   1.0856999999999999E+01   1.3109999999999999E+00   3.6230000000000002E+00
  148   2   4.0289999999999999E+00   5.6200000000000006E-01   1.1410000000000000E+00
  149   1   4.6210000000000004E+00   1.0489999999999999E+00   1.8040000000000000E+00
  150   1   4.5930000000000000E+00   1.2131000000000000E+01   1.0140000000000000E+00
  151   2   9.6790000000000003E+00   4.5860000000000003E+00   5.1079999999999997E+00
  152   1   1.0612000000000000E+01   4.4859999999999998E+00   4.8209999999999997E+00
  153   1   9.0719999999999992E+00   4.4580000000000002E+00   4.3419999999999996E+00
  154   2   1.0475000000000000E+01   8.1069999999999993E+00   2.9140000000000001E+00
  155   1   1.0808000000000000E+01   9.0039999999999996E+00   3.1859999999999999E+00
  156   1   1.1085000000000001E+01   7.4370000000000003E+00   3.3639999999999999E+00
  157   2   4.0620000000000003E+00   5.3940000000000001E+00   7.0140000000000002E+00
  158   1   4.2930000000000001E+00   6.2889999999999997E+00   7.0860000000000003E+00
  159   1   4.8470000000000004E+00   4.9840000000000000E+00   6.6509999999999998E+00
  160   2   4.8140000000000001E+00   2.2839999999999998E+00   8.1359999999999992E+00
  161   1   5.3289999999999997E+00   1.9930000000000001E+00   7.2939999999999996E+00
  162   1   5.1410000000000000E+00   1.8380000000000001E+00   8.9440000000000008E+00
  163   2   4.5220000000000002E+00   1.0631000000000000E+01   1.2236000000000001E+01
  164   1   4.9740000000000002E+00   1.0071000000000000E+01   4.5300000000000001E-01
  165   1   3.6070000000000002E+00   1.0308000000000000E+01   1.2119999999999999E+01
  166   2   1.3200000000000001E+00   1.2100000000000000E+01   9.8529999999999998E+00
  167   1   1.7840000000000000E+00   1.1446000000000000E+01   9.3369999999999997E+00
  168   1   3.9700000000000002E-01   1.2000000000000000E+01   9.6460000000000008E+00
  169   2   4.7569999999999997E+00   7.8769999999999998E+00   7.2580000000000000E+00
  170   1   5.4500000000000002E+00   7.9160000000000004E+00   6.5590000000000002E+00
  171   1   5.2660000000000000E+00   8.2119999999999997E+00   8.0050000000000008E+00
  172   2   6.0739999999999998E+00   1.1350000000000000E+00   5.8890000000000002E+00
  173   1   5.5300000000000002E+00   1.4250000000000000E+00   5.1650000000000000E+00
  174   1   6.9900000000000002E+00   1.4590000000000001E+00   5.7830000000000004E+00
  175   2   1.5500000000000000E+00   5.0759999999999996E+00   5.6299999999999999E+00
  176   1   1.1359999999999999E+00   4.2740000000000000E+00   6.0679999999999996E+00
  177   1   2.2930000000000001E+00   5.2939999999999996E+00   6.1879999999999997E+00
  178   2   8.6739999999999995E+00   1.1586000000000000E+01   6.9210000000000003E+00
  179   1   9.2780000000000005E+00   1.0778000000000000E+01   6.9390000000000001E+00
  180   1   8.3610000000000007E+00   1.1731999999999999E+01   7.8460000000000001E+00
  181   2   2.3260000000000001E+00   8.2029999999999994E+00   1.2305000000000000E+01
  182   1   1.6839999999999999E+00   8.9649999999999999E+00   1.2257999999999999E+01
  183   1   1.7880000000000000E+00   7.4640000000000004E+00   1.2022000000000000E+01
  184   2   8.6599999999999999E-01   2.5059999999999998E+00   1.0407000000000000E+01
  185   1   9.3100000000000005E-01   1.8149999999999999E+00   9.6980000000000004E+00
  186   1   1.2980000000000000E+00   2.0659999999999998E+00   1.1159000000000001E+01
  187   2   5.6230000000000002E+00   9.3209999999999997E+00   1.8910000000000000E+00
  188   1   6.5770000000000000E+00   9.0389999999999997E+00   1.9700000000000000E+00
  189   1   5.1170000000000000E+00   8.5540000000000003E+00   2.1810000000000000E+00
  190   2   1.2150000000000000E+01   5.9189999999999996E+00   3.5400000000000000E+00
  191   1   4.6899999999999997E-01   5.5350000000000001E+00   4.0730000000000004E+00
  192   1   1.1673999999999999E+01   5.2050000000000001E+00   3.0219999999999998E+00
