LAMMPS (4 Feb 2020)
OMP_NUM_THREADS environment is not set. Defaulting to 1 thread. (../comm.cpp:94)
  using 1 OpenMP thread(s) per MPI task
variable Nrun   equal 5  #
variable Nevery equal 1
variable T_ext  equal 500.0
variable seed   equal 123456

#-----------------------------------------------------------------------

clear
OMP_NUM_THREADS environment is not set. Defaulting to 1 thread. (../comm.cpp:94)
  using 1 OpenMP thread(s) per MPI task
units metal    # eV, Angstrom, g/mol, ps, K, bar
dimension 3
boundary p p p
atom_style atomic

# read initial structure from data file
read_data aLiSi.data
  orthogonal box = (0 0 0) to (265.244 315.919 300.231)
  1 by 1 by 1 MPI processor grid
  reading atoms ...
  1632000 atoms
  read_data CPU = 1.17014 secs

# potential
pair_style aenet Li.ann Si.ann
pair_coeff * *

#set carrier species
#group Li type 1

# Configure output of thermodynamic quantities
#thermo 1
#thermo_style custom step time temp etotal pe ke
# thermo_modify norm yes  # normalize extensive quantitites by number of atoms

# EoM integration
# run_style  verlet
timestep   0.001  # 1fs, 0.001ps

# Neighbor list
neighbor 1.0 bin
neigh_modify once no every 1 delay 0 check yes

# Configure output of thermodynamic quantities
thermo 1
thermo_style custom step time temp etotal pe ke # c_msd[4]  v_fitslope
# thermo_modify norm yes  # normalize extensive quantitites by number of atoms


# NVT simulation with Bussi thermostat
velocity all create ${T_ext} ${seed} rot yes mom yes dist gaussian
velocity all create 500 ${seed} rot yes mom yes dist gaussian
velocity all create 500 123456 rot yes mom yes dist gaussian
fix 1 all nve
fix 2 all temp/csvr ${T_ext} ${T_ext} 1.0 ${seed}
fix 2 all temp/csvr 500 ${T_ext} 1.0 ${seed}
fix 2 all temp/csvr 500 500 1.0 ${seed}
fix 2 all temp/csvr 500 500 1.0 123456
fix 3 all momentum 100 linear 1 1 1
run ${Nrun}
run 5
Neighbor list info ...
  update every 1 steps, delay 0 steps, check yes
  max neighbors/atom: 2000, page size: 100000
  master list distance cutoff = 9
  ghost atom cutoff = 9
  binsize = 4.5, bins = 59 71 67
  1 neighbor lists, perpetual/occasional/extra = 1 0 0
  (1) pair aenet, perpetual
      attributes: full, newton on
      pair build: full/bin/atomonly
      stencil: full/bin/3d
      bin: standard
Per MPI rank memory allocation (min/avg/max) = 1498 | 1498 | 1498 Mbytes
Step Time Temp TotEng PotEng KinEng 
       0            0          500   -4760785.5   -4866261.7    105476.21 
       1        0.001    500.39167   -4760779.9   -4866338.7    105558.84 
       2        0.002    501.44688   -4760779.1   -4866560.5    105781.44 
       3        0.003     503.1181   -4760783.6   -4866917.6    106133.98 
       4        0.004    505.35335   -4760788.4     -4867394    106605.52 
       5        0.005    507.89198   -4760796.7   -4867937.7    107141.05 
Loop time of 1368.13 on 1 procs for 5 steps with 1632000 atoms

Performance: 0.000 ns/day, 76007.213 hours/ns, 0.004 timesteps/s
99.7% CPU use with 1 MPI tasks x 1 OpenMP threads

MPI task timing breakdown:
Section |  min time  |  avg time  |  max time  |%varavg| %total
---------------------------------------------------------------
Pair    | 1367.7     | 1367.7     | 1367.7     |   0.0 | 99.97
Neigh   | 0          | 0          | 0          |   0.0 |  0.00
Comm    | 0.061584   | 0.061584   | 0.061584   |   0.0 |  0.00
Output  | 0.025733   | 0.025733   | 0.025733   |   0.0 |  0.00
Modify  | 0.2398     | 0.2398     | 0.2398     |   0.0 |  0.02
Other   |            | 0.07541    |            |       |  0.01

Nlocal:    1.632e+06 ave 1.632e+06 max 1.632e+06 min
Histogram: 1 0 0 0 0 0 0 0 0 0
Nghost:    337004 ave 337004 max 337004 min
Histogram: 1 0 0 0 0 0 0 0 0 0
Neighs:    0 ave 0 max 0 min
Histogram: 1 0 0 0 0 0 0 0 0 0
FullNghs:  2.9856e+08 ave 2.9856e+08 max 2.9856e+08 min
Histogram: 1 0 0 0 0 0 0 0 0 0

Total # of neighbors = 298560000
Ave neighs/atom = 182.941
Neighbor list builds = 0
Dangerous builds = 0
Total wall time: 0:27:30
