LAMMPS (4 Feb 2020)
OMP_NUM_THREADS environment is not set. Defaulting to 1 thread. (../comm.cpp:94)
  using 1 OpenMP thread(s) per MPI task
variable Nrun   equal 5  #
variable Nevery equal 1
variable T_ext  equal 400.0
variable seed   equal 123456

#-----------------------------------------------------------------------

clear
OMP_NUM_THREADS environment is not set. Defaulting to 1 thread. (../comm.cpp:94)
  using 1 OpenMP thread(s) per MPI task
units metal    # eV, Angstrom, g/mol, ps, K, bar
dimension 3
boundary p p p
atom_style atomic

# read initial structure from data file
read_data POSCAR-12x12x12-331776.data
  orthogonal box = (0 0 0) to (149.04 149.04 149.04)
  2 by 2 by 3 MPI processor grid
  reading atoms ...
  331776 atoms
  read_data CPU = 0.880466 secs

# potential
pair_style aenet H.ann O.ann
pair_coeff * *

#set carrier species
#group O type 1

# Configure output of thermodynamic quantities
#thermo 1
#thermo_style custom step time temp etotal pe ke
# thermo_modify norm yes  # normalize extensive quantitites by number of atoms

# EoM integration
# run_style  verlet
timestep   0.001  # 1fs, 0.001ps

# Neighbor list
neighbor 1.0 bin
neigh_modify once no every 1 delay 0 check yes

# Configure output of thermodynamic quantities
thermo 1
thermo_style custom step time temp etotal pe ke # c_msd[4]  v_fitslope
# thermo_modify norm yes  # normalize extensive quantitites by number of atoms

# save the trajectory in XYZ format
# dump q1 all xyz 10 dump.xyz       #0.02ps output one structure
# dump_modify q1 element H O

# NVT simulation with Bussi thermostat
velocity all create ${T_ext} ${seed} rot yes mom yes dist gaussian
velocity all create 400 ${seed} rot yes mom yes dist gaussian
velocity all create 400 123456 rot yes mom yes dist gaussian
fix 1 all nve
fix 2 all temp/csvr ${T_ext} ${T_ext} 1.0 ${seed}
fix 2 all temp/csvr 400 ${T_ext} 1.0 ${seed}
fix 2 all temp/csvr 400 400 1.0 ${seed}
fix 2 all temp/csvr 400 400 1.0 123456
fix 3 all momentum 100 linear 1 1 1
run ${Nrun}
run 5
Neighbor list info ...
  update every 1 steps, delay 0 steps, check yes
  max neighbors/atom: 2000, page size: 100000
  master list distance cutoff = 7.35
  ghost atom cutoff = 7.35
  binsize = 3.675, bins = 41 41 41
  1 neighbor lists, perpetual/occasional/extra = 1 0 0
  (1) pair aenet, perpetual
      attributes: full, newton on
      pair build: full/bin/atomonly
      stencil: full/bin/3d
      bin: standard
Per MPI rank memory allocation (min/avg/max) = 29.05 | 29.05 | 29.05 Mbytes
Step Time Temp TotEng PotEng KinEng 
       0            0          400    -51916988    -51934142    17154.114 
       1        0.001    398.15852    -51916975    -51934051    17075.142 
       2        0.002    396.92926    -51916961    -51933983    17022.424 
       3        0.003    402.36518    -51916971    -51934226    17255.545 
       4        0.004    412.76241    -51917012    -51934713    17701.433 
       5        0.005    416.73885    -51917037    -51934909    17871.964 
Loop time of 26.4595 on 12 procs for 5 steps with 331776 atoms

Performance: 0.016 ns/day, 1469.975 hours/ns, 0.189 timesteps/s
99.7% CPU use with 12 MPI tasks x 1 OpenMP threads

MPI task timing breakdown:
Section |  min time  |  avg time  |  max time  |%varavg| %total
---------------------------------------------------------------
Pair    | 26.249     | 26.291     | 26.448     |   0.9 | 99.36
Neigh   | 0          | 0          | 0          |   0.0 |  0.00
Comm    | 0.0038929  | 0.16052    | 0.20237    |  12.1 |  0.61
Output  | 0.00040007 | 0.00041976 | 0.00045705 |   0.0 |  0.00
Modify  | 0.0044267  | 0.0044813  | 0.0045762  |   0.1 |  0.02
Other   |            | 0.002939   |            |       |  0.01

Nlocal:    27648 ave 27648 max 27648 min
Histogram: 12 0 0 0 0 0 0 0 0 0
Nghost:    24117 ave 24117 max 24117 min
Histogram: 12 0 0 0 0 0 0 0 0 0
Neighs:    0 ave 0 max 0 min
Histogram: 12 0 0 0 0 0 0 0 0 0
FullNghs:  4.57286e+06 ave 4.57286e+06 max 4.57286e+06 min
Histogram: 12 0 0 0 0 0 0 0 0 0

Total # of neighbors = 54874368
Ave neighs/atom = 165.396
Neighbor list builds = 0
Dangerous builds = 0
Total wall time: 0:00:32
