LAMMPS (4 Feb 2020)
OMP_NUM_THREADS environment is not set. Defaulting to 1 thread. (../comm.cpp:94)
  using 1 OpenMP thread(s) per MPI task
variable Nrun   equal 5  #
variable Nevery equal 1
variable T_ext  equal 500.0
variable seed   equal 123456

#-----------------------------------------------------------------------

clear
OMP_NUM_THREADS environment is not set. Defaulting to 1 thread. (../comm.cpp:94)
  using 1 OpenMP thread(s) per MPI task
units metal    # eV, Angstrom, g/mol, ps, K, bar
dimension 3
boundary p p p
atom_style atomic

# read initial structure from data file
read_data aLiSi.data
  orthogonal box = (0 0 0) to (119.36 142.164 135.104)
  1 by 1 by 1 MPI processor grid
  reading atoms ...
  148716 atoms
  read_data CPU = 0.327531 secs

# potential
pair_style aenet Li.ann Si.ann
pair_coeff * *

#set carrier species
#group Li type 1

# Configure output of thermodynamic quantities
#thermo 1
#thermo_style custom step time temp etotal pe ke
# thermo_modify norm yes  # normalize extensive quantitites by number of atoms

# EoM integration
# run_style  verlet
timestep   0.001  # 1fs, 0.001ps

# Neighbor list
neighbor 1.0 bin
neigh_modify once no every 1 delay 0 check yes

# Configure output of thermodynamic quantities
thermo 1
thermo_style custom step time temp etotal pe ke # c_msd[4]  v_fitslope
# thermo_modify norm yes  # normalize extensive quantitites by number of atoms


# NVT simulation with Bussi thermostat
velocity all create ${T_ext} ${seed} rot yes mom yes dist gaussian
velocity all create 500 ${seed} rot yes mom yes dist gaussian
velocity all create 500 123456 rot yes mom yes dist gaussian
fix 1 all nve
fix 2 all temp/csvr ${T_ext} ${T_ext} 1.0 ${seed}
fix 2 all temp/csvr 500 ${T_ext} 1.0 ${seed}
fix 2 all temp/csvr 500 500 1.0 ${seed}
fix 2 all temp/csvr 500 500 1.0 123456
fix 3 all momentum 100 linear 1 1 1
run ${Nrun}
run 5
Neighbor list info ...
  update every 1 steps, delay 0 steps, check yes
  max neighbors/atom: 2000, page size: 100000
  master list distance cutoff = 9
  ghost atom cutoff = 9
  binsize = 4.5, bins = 27 32 31
  1 neighbor lists, perpetual/occasional/extra = 1 0 0
  (1) pair aenet, perpetual
      attributes: full, newton on
      pair build: full/bin/atomonly
      stencil: full/bin/3d
      bin: standard
Per MPI rank memory allocation (min/avg/max) = 145.4 | 145.4 | 145.4 Mbytes
Step Time Temp TotEng PotEng KinEng 
       0            0          500   -433826.64    -443438.1    9611.4612 
       1        0.001    500.47959    -433824.8   -443445.48    9620.6804 
       2        0.002    501.57925   -433824.33   -443466.15    9641.8191 
       3        0.003    503.24783   -433825.32   -443499.21     9673.894 
       4        0.004    505.51823   -433825.69   -443543.23    9717.5377 
       5        0.005     508.1026   -433826.28    -443593.5     9767.217 
Loop time of 116.282 on 1 procs for 5 steps with 148716 atoms

Performance: 0.004 ns/day, 6460.096 hours/ns, 0.043 timesteps/s
99.7% CPU use with 1 MPI tasks x 1 OpenMP threads

MPI task timing breakdown:
Section |  min time  |  avg time  |  max time  |%varavg| %total
---------------------------------------------------------------
Pair    | 116.24     | 116.24     | 116.24     |   0.0 | 99.97
Neigh   | 0          | 0          | 0          |   0.0 |  0.00
Comm    | 0.0098555  | 0.0098555  | 0.0098555  |   0.0 |  0.01
Output  | 0.0013762  | 0.0013762  | 0.0013762  |   0.0 |  0.00
Modify  | 0.018191   | 0.018191   | 0.018191   |   0.0 |  0.02
Other   |            | 0.007954   |            |       |  0.01

Nlocal:    148716 ave 148716 max 148716 min
Histogram: 1 0 0 0 0 0 0 0 0 0
Nghost:    73576 ave 73576 max 73576 min
Histogram: 1 0 0 0 0 0 0 0 0 0
Neighs:    0 ave 0 max 0 min
Histogram: 1 0 0 0 0 0 0 0 0 0
FullNghs:  2.72063e+07 ave 2.72063e+07 max 2.72063e+07 min
Histogram: 1 0 0 0 0 0 0 0 0 0

Total # of neighbors = 27206280
Ave neighs/atom = 182.941
Neighbor list builds = 0
Dangerous builds = 0
Total wall time: 0:02:22
