LAMMPS (4 Feb 2020)
OMP_NUM_THREADS environment is not set. Defaulting to 1 thread. (../comm.cpp:94)
  using 1 OpenMP thread(s) per MPI task
OMP_NUM_THREADS environment is not set. Defaulting to 1 thread. (../comm.cpp:94)
  using 1 OpenMP thread(s) per MPI task
Reading data file ...
  orthogonal box = (0 0 0) to (211.14 211.14 211.14)
  4 by 6 by 4 MPI processor grid
  reading atoms ...
  943296 atoms
  read_data CPU = 1.12466 secs
Neighbor list info ...
  update every 1 steps, delay 0 steps, check yes
  max neighbors/atom: 2000, page size: 100000
  master list distance cutoff = 7.35
  ghost atom cutoff = 7.35
  binsize = 3.675, bins = 58 58 58
  1 neighbor lists, perpetual/occasional/extra = 1 0 0
  (1) pair aenet, perpetual
      attributes: full, newton on
      pair build: full/bin/atomonly
      stencil: full/bin/3d
      bin: standard
Setting up Verlet run ...
  Unit style    : metal
  Current step  : 0
  Time step     : 0.001
Per MPI rank memory allocation (min/avg/max) = 11.98 | 11.99 | 12.01 Mbytes
Step Time Temp TotEng PotEng KinEng 
       0            0          400 -1.4760889e+08 -1.4765766e+08    48772.179 
       1        0.001    398.27736 -1.4760886e+08 -1.4765742e+08    48562.137 
       2        0.002    397.43009 -1.4760882e+08 -1.4765728e+08    48458.829 
       3        0.003    403.11161 -1.4760885e+08 -1.47658e+08     49151.58 
       4        0.004    413.32067 -1.4760896e+08 -1.4765936e+08    50396.374 
       5        0.005    417.02042 -1.4760903e+08 -1.4765988e+08    50847.486 
Loop time of 9.51569 on 96 procs for 5 steps with 943296 atoms

Performance: 0.045 ns/day, 528.650 hours/ns, 0.525 timesteps/s
99.7% CPU use with 96 MPI tasks x 1 OpenMP threads

MPI task timing breakdown:
Section |  min time  |  avg time  |  max time  |%varavg| %total
---------------------------------------------------------------
Pair    | 7.6009     | 9.2502     | 9.5001     |  10.7 | 97.21
Neigh   | 0          | 0          | 0          |   0.0 |  0.00
Comm    | 0.0028248  | 0.23766    | 1.8802     |  67.2 |  2.50
Output  | 0.00044608 | 0.00070833 | 0.00098777 |   0.0 |  0.01
Modify  | 0.0017002  | 0.026388   | 0.091274   |  14.6 |  0.28
Other   |            | 0.0007856  |            |       |  0.01

Nlocal:    9826 ave 9997 max 9640 min
Histogram: 5 7 9 7 13 16 14 16 3 6
Nghost:    12920.3 ave 13227 max 12539 min
Histogram: 2 3 8 9 16 16 21 6 10 5
Neighs:    0 ave 0 max 0 min
Histogram: 96 0 0 0 0 0 0 0 0 0
FullNghs:  1.62518e+06 ave 1.655e+06 max 1.59442e+06 min
Histogram: 5 7 9 8 16 13 16 12 6 4

Total # of neighbors = 156017228
Ave neighs/atom = 165.396
Neighbor list builds = 0
Dangerous builds = 0
Total wall time: 0:00:13
